 Entering Gaussian System, Link 0=g16
 Input=/rdsgpfs/general/user/smf115/home/vxHydrolysis/reacProd/sp/vx_sp.com
 Output=/rdsgpfs/general/user/smf115/home/vxHydrolysis/reacProd/sp/vx_sp.log
 Initial command:
 /apps/gaussian/g16-c01-avx/g16/l1.exe "/tmp/pbs.1221463[15].pbs/Gau-7432.inp" -scrdir="/tmp/pbs.1221463[15].pbs/"
 Entering Link 1 = /apps/gaussian/g16-c01-avx/g16/l1.exe PID=      7433.
  
 Copyright (c) 1988-2019, Gaussian, Inc.  All Rights Reserved.
  
 This is part of the Gaussian(R) 16 program.  It is based on
 the Gaussian(R) 09 system (copyright 2009, Gaussian, Inc.),
 the Gaussian(R) 03 system (copyright 2003, Gaussian, Inc.),
 the Gaussian(R) 98 system (copyright 1998, Gaussian, Inc.),
 the Gaussian(R) 94 system (copyright 1995, Gaussian, Inc.),
 the Gaussian 92(TM) system (copyright 1992, Gaussian, Inc.),
 the Gaussian 90(TM) system (copyright 1990, Gaussian, Inc.),
 the Gaussian 88(TM) system (copyright 1988, Gaussian, Inc.),
 the Gaussian 86(TM) system (copyright 1986, Carnegie Mellon
 University), and the Gaussian 82(TM) system (copyright 1983,
 Carnegie Mellon University). Gaussian is a federally registered
 trademark of Gaussian, Inc.
  
 This software contains proprietary and confidential information,
 including trade secrets, belonging to Gaussian, Inc.
  
 This software is provided under written license and may be
 used, copied, transmitted, or stored only in accord with that
 written license.
  
 The following legend is applicable only to US Government
 contracts under FAR:
  
                    RESTRICTED RIGHTS LEGEND
  
 Use, reproduction and disclosure by the US Government is
 subject to restrictions as set forth in subparagraphs (a)
 and (c) of the Commercial Computer Software - Restricted
 Rights clause in FAR 52.227-19.
  
 Gaussian, Inc.
 340 Quinnipiac St., Bldg. 40, Wallingford CT 06492
  
  
 ---------------------------------------------------------------
 Warning -- This program may not be used in any manner that
 competes with the business of Gaussian, Inc. or will provide
 assistance to any competitor of Gaussian, Inc.  The licensee
 of this program is prohibited from giving any competitor of
 Gaussian, Inc. access to this program.  By using this program,
 the user acknowledges that Gaussian, Inc. is engaged in the
 business of creating and licensing software in the field of
 computational chemistry and represents and warrants to the
 licensee that it is not a competitor of Gaussian, Inc. and that
 it will not use this program in any manner prohibited above.
 ---------------------------------------------------------------
  

 Cite this work as:
 Gaussian 16, Revision C.01,
 M. J. Frisch, G. W. Trucks, H. B. Schlegel, G. E. Scuseria, 
 M. A. Robb, J. R. Cheeseman, G. Scalmani, V. Barone, 
 G. A. Petersson, H. Nakatsuji, X. Li, M. Caricato, A. V. Marenich, 
 J. Bloino, B. G. Janesko, R. Gomperts, B. Mennucci, H. P. Hratchian, 
 J. V. Ortiz, A. F. Izmaylov, J. L. Sonnenberg, D. Williams-Young, 
 F. Ding, F. Lipparini, F. Egidi, J. Goings, B. Peng, A. Petrone, 
 T. Henderson, D. Ranasinghe, V. G. Zakrzewski, J. Gao, N. Rega, 
 G. Zheng, W. Liang, M. Hada, M. Ehara, K. Toyota, R. Fukuda, 
 J. Hasegawa, M. Ishida, T. Nakajima, Y. Honda, O. Kitao, H. Nakai, 
 T. Vreven, K. Throssell, J. A. Montgomery, Jr., J. E. Peralta, 
 F. Ogliaro, M. J. Bearpark, J. J. Heyd, E. N. Brothers, K. N. Kudin, 
 V. N. Staroverov, T. A. Keith, R. Kobayashi, J. Normand, 
 K. Raghavachari, A. P. Rendell, J. C. Burant, S. S. Iyengar, 
 J. Tomasi, M. Cossi, J. M. Millam, M. Klene, C. Adamo, R. Cammi, 
 J. W. Ochterski, R. L. Martin, K. Morokuma, O. Farkas, 
 J. B. Foresman, and D. J. Fox, Gaussian, Inc., Wallingford CT, 2019.
 
 ******************************************
 Gaussian 16:  ES64L-G16RevC.01  3-Jul-2019
                18-Mar-2020 
 ******************************************
 %chk=vx_sp
 %nprocshared=20
 Will use up to   20 processors via shared memory.
 %mem=60000MB
 ----------------------------------------------------------------------
 #P M062X/6-311++G(d,p) Opt(Tight,RCFC) Freq SCRF(SMD) SCF(Conver=9) In
 t(Grid=UltraFine) Geom(Check) Guess(Read)
 ----------------------------------------------------------------------
 1/7=10,10=5,18=20,19=15,26=6,29=2,38=1/1,3;
 2/9=110,12=2,40=1/2;
 3/5=4,6=6,7=1111,11=2,14=-4,25=1,30=1,70=32201,71=1,74=-55,75=-5,116=-2/1,2,3;
 4/5=1/1;
 5/5=2,6=9,38=6/2;
 6/7=2,8=2,9=2,10=2,28=1/1;
 7/25=51/1,2,3,16;
 1/7=10,10=5,18=20,19=15,26=6/3(2);
 2/9=110/2;
 99//99;
 2/9=110/2;
 3/5=4,6=6,7=1111,11=2,14=-2,25=1,30=1,70=32205,71=1,74=-55,75=-5/1,2,3;
 4/5=5,16=3,69=1/1;
 5/5=2,6=9,38=5/2;
 7//1,2,3,16;
 1/7=10,18=20,19=15,26=6/3(-5);
 2/9=110/2;
 6/7=2,8=2,9=2,10=2,19=2,28=1/1;
 99/9=1/99;
 Leave Link    1 at Wed Mar 18 15:10:01 2020, MaxMem=  7864320000 cpu:               1.7 elap:               0.1
 (Enter /apps/gaussian/g16-c01-avx/g16/l101.exe)
 -----------
 vx_sp reopt
 -----------
 Structure from the checkpoint file:  "vx_sp.chk"
 Charge =  0 Multiplicity = 1
 Redundant internal coordinates found in file.  (old form).
 P,0,-2.3445644066,-0.353665812,0.2589244504
 S,0,-1.1831283731,-1.6603022722,-0.9150076046
 O,0,-2.6457604385,0.8881008256,-0.7127959843
 C,0,0.1569228372,-2.1562434283,0.2420716445
 C,0,-1.573529753,1.8162971448,-1.0363492578
 O,0,-1.6625694449,0.009877228,1.5416170909
 C,0,-3.973718514,-1.0660364167,0.4372582632
 H,0,-3.8905524541,-1.96766822,1.0453713598
 H,0,-4.3824745407,-1.316759597,-0.5422153996
 H,0,-4.6158474218,-0.3376939735,0.9364210977
 H,0,-1.6319975884,1.9744925785,-2.1129572801
 H,0,-0.613932247,1.3472214225,-0.8052176796
 C,0,-1.7671080407,3.1022281102,-0.2679241696
 H,0,-0.9634671776,3.7989392094,-0.5176609311
 H,0,-1.7445682007,2.9160315059,0.8079511193
 H,0,-2.7212284864,3.565074243,-0.5269316757
 C,0,1.5187423901,-1.5898226642,-0.1451229379
 H,0,-0.1484195656,-1.8771712849,1.2488998359
 H,0,0.194263379,-3.2446105815,0.1888692943
 H,0,2.2686385419,-2.1568066919,0.431610586
 N,0,1.655359009,-0.1526277515,0.0363388769
 H,0,1.6939244655,-1.8301855317,-1.1957990617
 C,0,2.6573790903,0.454779108,-0.8666887004
 C,0,1.7757926729,0.2454883957,1.4519020318
 C,0,1.3398614926,1.696058532,1.6506784515
 C,0,3.1548372601,0.0171009137,2.0837934952
 H,0,1.0611227569,-0.3779699152,1.9957935948
 H,0,2.9510022987,1.400314256,-0.4057432
 C,0,2.0231362348,0.7782090013,-2.2183164104
 C,0,3.9379309034,-0.3678609074,-1.082096398
 H,0,0.3473640708,1.8645657095,1.2299228093
 H,0,2.0380970235,2.3964407919,1.1840676594
 H,0,1.3055585973,1.9306977118,2.7178152247
 H,0,3.4939377675,-1.0145342807,1.9635922577
 H,0,3.1040580217,0.230001209,3.1547599026
 H,0,3.9037773852,0.6830728899,1.6457823026
 H,0,2.7674640085,1.1996463174,-2.8995286848
 H,0,1.210293101,1.4987207225,-2.1065093951
 H,0,1.6182898748,-0.1266872455,-2.6825086264
 H,0,4.6815609335,0.2517544138,-1.5899065264
 H,0,3.7490541964,-1.2375047718,-1.717272064
 H,0,4.3719584425,-0.7170278482,-0.1447253532
 Recover connectivity data from disk.
 ITRead=  0  0  0  0  0  0  0  0  0  0  0  0  0  0  0  0  0  0  0  0
 ITRead=  0  0  0  0  0  0  0  0  0  0  0  0  0  0  0  0  0  0  0  0
 ITRead=  0  0
 MicOpt= -1 -1 -1 -1 -1 -1 -1 -1 -1 -1 -1 -1 -1 -1 -1 -1 -1 -1 -1 -1
 MicOpt= -1 -1 -1 -1 -1 -1 -1 -1 -1 -1 -1 -1 -1 -1 -1 -1 -1 -1 -1 -1
 MicOpt= -1 -1
 NAtoms=     42 NQM=       42 NQMF=       0 NMMI=      0 NMMIF=      0
                NMic=       0 NMicF=      0.
                    Isotopes and Nuclear Properties:
 (Nuclear quadrupole moments (NQMom) in fm**2, nuclear magnetic moments (NMagM)
  in nuclear magnetons)

  Atom         1           2           3           4           5           6           7           8           9          10
 IAtWgt=          31          32          16          12          12          16          12           1           1           1
 AtmWgt=  30.9737634  31.9720718  15.9949146  12.0000000  12.0000000  15.9949146  12.0000000   1.0078250   1.0078250   1.0078250
 NucSpn=           1           0           0           0           0           0           0           1           1           1
 AtZEff=  12.9400000  13.6000000   5.6000000   3.6000000   3.6000000   5.6000000   3.6000000   1.0000000   1.0000000   1.0000000
 NQMom=    0.0000000   0.0000000   0.0000000   0.0000000   0.0000000   0.0000000   0.0000000   0.0000000   0.0000000   0.0000000
 NMagM=    1.1316000   0.0000000   0.0000000   0.0000000   0.0000000   0.0000000   0.0000000   2.7928460   2.7928460   2.7928460
 AtZNuc=  15.0000000  16.0000000   8.0000000   6.0000000   6.0000000   8.0000000   6.0000000   1.0000000   1.0000000   1.0000000

  Atom        11          12          13          14          15          16          17          18          19          20
 IAtWgt=           1           1          12           1           1           1          12           1           1           1
 AtmWgt=   1.0078250   1.0078250  12.0000000   1.0078250   1.0078250   1.0078250  12.0000000   1.0078250   1.0078250   1.0078250
 NucSpn=           1           1           0           1           1           1           0           1           1           1
 AtZEff=   1.0000000   1.0000000   3.6000000   1.0000000   1.0000000   1.0000000   3.6000000   1.0000000   1.0000000   1.0000000
 NQMom=    0.0000000   0.0000000   0.0000000   0.0000000   0.0000000   0.0000000   0.0000000   0.0000000   0.0000000   0.0000000
 NMagM=    2.7928460   2.7928460   0.0000000   2.7928460   2.7928460   2.7928460   0.0000000   2.7928460   2.7928460   2.7928460
 AtZNuc=   1.0000000   1.0000000   6.0000000   1.0000000   1.0000000   1.0000000   6.0000000   1.0000000   1.0000000   1.0000000

  Atom        21          22          23          24          25          26          27          28          29          30
 IAtWgt=          14           1          12          12          12          12           1           1          12          12
 AtmWgt=  14.0030740   1.0078250  12.0000000  12.0000000  12.0000000  12.0000000   1.0078250   1.0078250  12.0000000  12.0000000
 NucSpn=           2           1           0           0           0           0           1           1           0           0
 AtZEff=   4.5500000   1.0000000   3.6000000   3.6000000   3.6000000   3.6000000   1.0000000   1.0000000   3.6000000   3.6000000
 NQMom=    2.0440000   0.0000000   0.0000000   0.0000000   0.0000000   0.0000000   0.0000000   0.0000000   0.0000000   0.0000000
 NMagM=    0.4037610   2.7928460   0.0000000   0.0000000   0.0000000   0.0000000   2.7928460   2.7928460   0.0000000   0.0000000
 AtZNuc=   7.0000000   1.0000000   6.0000000   6.0000000   6.0000000   6.0000000   1.0000000   1.0000000   6.0000000   6.0000000

  Atom        31          32          33          34          35          36          37          38          39          40
 IAtWgt=           1           1           1           1           1           1           1           1           1           1
 AtmWgt=   1.0078250   1.0078250   1.0078250   1.0078250   1.0078250   1.0078250   1.0078250   1.0078250   1.0078250   1.0078250
 NucSpn=           1           1           1           1           1           1           1           1           1           1
 AtZEff=   1.0000000   1.0000000   1.0000000   1.0000000   1.0000000   1.0000000   1.0000000   1.0000000   1.0000000   1.0000000
 NQMom=    0.0000000   0.0000000   0.0000000   0.0000000   0.0000000   0.0000000   0.0000000   0.0000000   0.0000000   0.0000000
 NMagM=    2.7928460   2.7928460   2.7928460   2.7928460   2.7928460   2.7928460   2.7928460   2.7928460   2.7928460   2.7928460
 AtZNuc=   1.0000000   1.0000000   1.0000000   1.0000000   1.0000000   1.0000000   1.0000000   1.0000000   1.0000000   1.0000000

  Atom        41          42
 IAtWgt=           1           1
 AtmWgt=   1.0078250   1.0078250
 NucSpn=           1           1
 AtZEff=   1.0000000   1.0000000
 NQMom=    0.0000000   0.0000000
 NMagM=    2.7928460   2.7928460
 AtZNuc=   1.0000000   1.0000000
 Leave Link  101 at Wed Mar 18 15:10:02 2020, MaxMem=  7864320000 cpu:               8.4 elap:               0.4
 (Enter /apps/gaussian/g16-c01-avx/g16/l103.exe)

 GradGradGradGradGradGradGradGradGradGradGradGradGradGradGradGradGradGrad
 Berny optimization.
 Initialization pass.
 Cartesian force constants read from checkpoint file:
 "vx_sp.chk"
 FormGI is forming the generalized inverse of G from B-inverse, IUseBI=4.
                           ----------------------------
                           !    Initial Parameters    !
                           ! (Angstroms and Degrees)  !
 --------------------------                            --------------------------
 ! Name  Definition              Value          Derivative Info.                !
 --------------------------------------------------------------------------------
 ! R1    R(1,2)                  2.1058         D2E/DX2 =    0.1734             !
 ! R2    R(1,3)                  1.6053         D2E/DX2 =    0.3417             !
 ! R3    R(1,6)                  1.4975         D2E/DX2 =    0.5672             !
 ! R4    R(1,7)                  1.787          D2E/DX2 =    0.2377             !
 ! R5    R(2,4)                  1.8386         D2E/DX2 =    0.1994             !
 ! R6    R(3,5)                  1.4546         D2E/DX2 =    0.3037             !
 ! R7    R(4,17)                 1.5249         D2E/DX2 =    0.293              !
 ! R8    R(4,18)                 1.0885         D2E/DX2 =    0.3529             !
 ! R9    R(4,19)                 1.0903         D2E/DX2 =    0.3469             !
 ! R10   R(5,11)                 1.0897         D2E/DX2 =    0.3475             !
 ! R11   R(5,12)                 1.0928         D2E/DX2 =    0.3401             !
 ! R12   R(5,13)                 1.5105         D2E/DX2 =    0.3088             !
 ! R13   R(7,8)                  1.0907         D2E/DX2 =    0.3513             !
 ! R14   R(7,9)                  1.0906         D2E/DX2 =    0.3509             !
 ! R15   R(7,10)                 1.0918         D2E/DX2 =    0.3486             !
 ! R16   R(13,14)                1.0925         D2E/DX2 =    0.3447             !
 ! R17   R(13,15)                1.0921         D2E/DX2 =    0.3444             !
 ! R18   R(13,16)                1.0916         D2E/DX2 =    0.3456             !
 ! R19   R(17,20)                1.1029         D2E/DX2 =    0.3165             !
 ! R20   R(17,21)                1.455          D2E/DX2 =    0.3429             !
 ! R21   R(17,22)                1.092          D2E/DX2 =    0.3432             !
 ! R22   R(21,23)                1.4793         D2E/DX2 =    0.3226             !
 ! R23   R(21,24)                1.4754         D2E/DX2 =    0.3283             !
 ! R24   R(23,28)                1.0921         D2E/DX2 =    0.341              !
 ! R25   R(23,29)                1.5277         D2E/DX2 =    0.2883             !
 ! R26   R(23,30)                1.5372         D2E/DX2 =    0.2746             !
 ! R27   R(24,25)                1.5276         D2E/DX2 =    0.2912             !
 ! R28   R(24,26)                1.534          D2E/DX2 =    0.2745             !
 ! R29   R(24,27)                1.0933         D2E/DX2 =    0.3384             !
 ! R30   R(25,31)                1.0911         D2E/DX2 =    0.3494             !
 ! R31   R(25,32)                1.0935         D2E/DX2 =    0.3403             !
 ! R32   R(25,33)                1.0932         D2E/DX2 =    0.3419             !
 ! R33   R(26,34)                1.0926         D2E/DX2 =    0.3427             !
 ! R34   R(26,35)                1.0931         D2E/DX2 =    0.3416             !
 ! R35   R(26,36)                1.0937         D2E/DX2 =    0.3402             !
 ! R36   R(29,37)                1.0935         D2E/DX2 =    0.3412             !
 ! R37   R(29,38)                1.0919         D2E/DX2 =    0.345              !
 ! R38   R(29,39)                1.0946         D2E/DX2 =    0.3384             !
 ! R39   R(30,40)                1.0931         D2E/DX2 =    0.3416             !
 ! R40   R(30,41)                1.0933         D2E/DX2 =    0.3408             !
 ! R41   R(30,42)                1.0904         D2E/DX2 =    0.3496             !
 ! A1    A(2,1,3)              104.2418         D2E/DX2 =    0.0514             !
 ! A2    A(2,1,6)              112.1452         D2E/DX2 =    0.0532             !
 ! A3    A(2,1,7)              108.1257         D2E/DX2 =    0.0813             !
 ! A4    A(3,1,6)              114.5915         D2E/DX2 =    0.0489             !
 ! A5    A(3,1,7)              101.4037         D2E/DX2 =    0.1035             !
 ! A6    A(6,1,7)              115.2444         D2E/DX2 =    0.0557             !
 ! A7    A(1,2,4)              102.6223         D2E/DX2 =    0.4983             !
 ! A8    A(1,3,5)              119.3368         D2E/DX2 =    0.2192             !
 ! A9    A(2,4,17)             113.0108         D2E/DX2 =    0.1884             !
 ! A10   A(2,4,18)             107.9686         D2E/DX2 =    0.0683             !
 ! A11   A(2,4,19)             105.2783         D2E/DX2 =    0.0652             !
 ! A12   A(17,4,18)            112.9639         D2E/DX2 =    0.0739             !
 ! A13   A(17,4,19)            109.1361         D2E/DX2 =    0.0852             !
 ! A14   A(18,4,19)            108.0996         D2E/DX2 =    0.0284             !
 ! A15   A(3,5,11)             105.833          D2E/DX2 =    0.0632             !
 ! A16   A(3,5,12)             109.0454         D2E/DX2 =    0.0711             !
 ! A17   A(3,5,13)             109.61           D2E/DX2 =    0.1652             !
 ! A18   A(11,5,12)            108.5645         D2E/DX2 =    0.03               !
 ! A19   A(11,5,13)            111.8473         D2E/DX2 =    0.0698             !
 ! A20   A(12,5,13)            111.7376         D2E/DX2 =    0.0708             !
 ! A21   A(1,7,8)              108.4004         D2E/DX2 =    0.0909             !
 ! A22   A(1,7,9)              110.1039         D2E/DX2 =    0.0914             !
 ! A23   A(1,7,10)             108.4142         D2E/DX2 =    0.0906             !
 ! A24   A(8,7,9)              109.8329         D2E/DX2 =    0.0451             !
 ! A25   A(8,7,10)             109.9626         D2E/DX2 =    0.0436             !
 ! A26   A(9,7,10)             110.0938         D2E/DX2 =    0.0453             !
 ! A27   A(5,13,14)            109.4112         D2E/DX2 =    0.0979             !
 ! A28   A(5,13,15)            110.6939         D2E/DX2 =    0.1042             !
 ! A29   A(5,13,16)            110.6263         D2E/DX2 =    0.103              !
 ! A30   A(14,13,15)           108.5864         D2E/DX2 =    0.0481             !
 ! A31   A(14,13,16)           108.5602         D2E/DX2 =    0.0479             !
 ! A32   A(15,13,16)           108.9092         D2E/DX2 =    0.0507             !
 ! A33   A(4,17,20)            106.4679         D2E/DX2 =    0.0771             !
 ! A34   A(4,17,21)            114.7765         D2E/DX2 =    0.3108             !
 ! A35   A(4,17,22)            107.8077         D2E/DX2 =    0.084              !
 ! A36   A(20,17,21)           112.2543         D2E/DX2 =    0.0803             !
 ! A37   A(20,17,22)           106.3143         D2E/DX2 =    0.0222             !
 ! A38   A(21,17,22)           108.8055         D2E/DX2 =    0.0721             !
 ! A39   A(17,21,23)           113.1431         D2E/DX2 =    0.1436             !
 ! A40   A(17,21,24)           113.194          D2E/DX2 =    0.1345             !
 ! A41   A(23,21,24)           114.8084         D2E/DX2 =    0.1432             !
 ! A42   A(21,23,28)           106.2573         D2E/DX2 =    0.027              !
 ! A43   A(21,23,29)           110.2306         D2E/DX2 =    0.0883             !
 ! A44   A(21,23,30)           115.4717         D2E/DX2 =    0.0925             !
 ! A45   A(28,23,29)           107.5629         D2E/DX2 =    0.0261             !
 ! A46   A(28,23,30)           107.3678         D2E/DX2 =    0.0283             !
 ! A47   A(29,23,30)           109.5832         D2E/DX2 =    0.0943             !
 ! A48   A(21,24,25)           110.9633         D2E/DX2 =    0.0982             !
 ! A49   A(21,24,26)           115.3673         D2E/DX2 =    0.0959             !
 ! A50   A(21,24,27)           105.6685         D2E/DX2 =    0.0271             !
 ! A51   A(25,24,26)           110.1393         D2E/DX2 =    0.095              !
 ! A52   A(25,24,27)           106.8711         D2E/DX2 =    0.0278             !
 ! A53   A(26,24,27)           107.3271         D2E/DX2 =    0.0279             !
 ! A54   A(24,25,31)           110.8575         D2E/DX2 =    0.0959             !
 ! A55   A(24,25,32)           111.7425         D2E/DX2 =    0.1045             !
 ! A56   A(24,25,33)           109.8639         D2E/DX2 =    0.1003             !
 ! A57   A(31,25,32)           108.5031         D2E/DX2 =    0.0501             !
 ! A58   A(31,25,33)           108.3459         D2E/DX2 =    0.048              !
 ! A59   A(32,25,33)           107.4039         D2E/DX2 =    0.0499             !
 ! A60   A(24,26,34)           111.9795         D2E/DX2 =    0.0988             !
 ! A61   A(24,26,35)           109.44           D2E/DX2 =    0.0981             !
 ! A62   A(24,26,36)           111.0976         D2E/DX2 =    0.1003             !
 ! A63   A(34,26,35)           107.825          D2E/DX2 =    0.0489             !
 ! A64   A(34,26,36)           108.5631         D2E/DX2 =    0.0506             !
 ! A65   A(35,26,36)           107.7928         D2E/DX2 =    0.0483             !
 ! A66   A(23,29,37)           110.4984         D2E/DX2 =    0.1003             !
 ! A67   A(23,29,38)           110.987          D2E/DX2 =    0.0993             !
 ! A68   A(23,29,39)           110.7156         D2E/DX2 =    0.1013             !
 ! A69   A(37,29,38)           108.4326         D2E/DX2 =    0.0495             !
 ! A70   A(37,29,39)           107.8292         D2E/DX2 =    0.0487             !
 ! A71   A(38,29,39)           108.2749         D2E/DX2 =    0.0495             !
 ! A72   A(23,30,40)           109.1765         D2E/DX2 =    0.0975             !
 ! A73   A(23,30,41)           111.2945         D2E/DX2 =    0.1032             !
 ! A74   A(23,30,42)           112.4883         D2E/DX2 =    0.0991             !
 ! A75   A(40,30,41)           107.3683         D2E/DX2 =    0.0484             !
 ! A76   A(40,30,42)           108.0653         D2E/DX2 =    0.0488             !
 ! A77   A(41,30,42)           108.269          D2E/DX2 =    0.0517             !
 ! D1    D(3,1,2,4)            135.3244         D2E/DX2 =    0.0675             !
 ! D2    D(6,1,2,4)             10.7947         D2E/DX2 =    0.0336             !
 ! D3    D(7,1,2,4)           -117.3546         D2E/DX2 =    0.0283             !
 ! D4    D(2,1,3,5)            -72.4244         D2E/DX2 =    0.0522             !
 ! D5    D(6,1,3,5)             50.5225         D2E/DX2 =    0.0321             !
 ! D6    D(7,1,3,5)            175.327          D2E/DX2 =    0.0274             !
 ! D7    D(2,1,7,8)             67.6874         D2E/DX2 =    0.0169             !
 ! D8    D(2,1,7,9)            -52.4795         D2E/DX2 =    0.0175             !
 ! D9    D(2,1,7,10)          -172.9738         D2E/DX2 =    0.0167             !
 ! D10   D(3,1,7,8)            176.9622         D2E/DX2 =    0.0171             !
 ! D11   D(3,1,7,9)             56.7953         D2E/DX2 =    0.0177             !
 ! D12   D(3,1,7,10)           -63.699          D2E/DX2 =    0.0174             !
 ! D13   D(6,1,7,8)            -58.6732         D2E/DX2 =    0.0174             !
 ! D14   D(6,1,7,9)           -178.8401         D2E/DX2 =    0.0162             !
 ! D15   D(6,1,7,10)            60.6656         D2E/DX2 =    0.0175             !
 ! D16   D(1,2,4,17)          -110.7493         D2E/DX2 =    0.0738             !
 ! D17   D(1,2,4,18)            14.9371         D2E/DX2 =    0.0315             !
 ! D18   D(1,2,4,19)           130.2244         D2E/DX2 =    0.0416             !
 ! D19   D(1,3,5,11)           134.3929         D2E/DX2 =    0.025              !
 ! D20   D(1,3,5,12)            17.7779         D2E/DX2 =    0.0253             !
 ! D21   D(1,3,5,13)          -104.8323         D2E/DX2 =    0.0256             !
 ! D22   D(2,4,17,20)         -164.9703         D2E/DX2 =    0.0318             !
 ! D23   D(2,4,17,21)           70.182          D2E/DX2 =    0.0427             !
 ! D24   D(2,4,17,22)          -51.2285         D2E/DX2 =    0.0245             !
 ! D25   D(18,4,17,20)          72.0754         D2E/DX2 =    0.0164             !
 ! D26   D(18,4,17,21)         -52.7724         D2E/DX2 =    0.0203             !
 ! D27   D(18,4,17,22)        -174.1829         D2E/DX2 =    0.0198             !
 ! D28   D(19,4,17,20)         -48.2011         D2E/DX2 =    0.0164             !
 ! D29   D(19,4,17,21)        -173.0489         D2E/DX2 =    0.0222             !
 ! D30   D(19,4,17,22)          65.5407         D2E/DX2 =    0.0166             !
 ! D31   D(3,5,13,14)         -179.6762         D2E/DX2 =    0.0168             !
 ! D32   D(3,5,13,15)           60.6963         D2E/DX2 =    0.0175             !
 ! D33   D(3,5,13,16)          -60.123          D2E/DX2 =    0.0173             !
 ! D34   D(11,5,13,14)         -62.6184         D2E/DX2 =    0.0155             !
 ! D35   D(11,5,13,15)         177.7541         D2E/DX2 =    0.0154             !
 ! D36   D(11,5,13,16)          56.9349         D2E/DX2 =    0.0164             !
 ! D37   D(12,5,13,14)          59.3276         D2E/DX2 =    0.0162             !
 ! D38   D(12,5,13,15)         -60.2999         D2E/DX2 =    0.0173             !
 ! D39   D(12,5,13,16)         178.8809         D2E/DX2 =    0.0159             !
 ! D40   D(4,17,21,23)        -153.5834         D2E/DX2 =    0.0286             !
 ! D41   D(4,17,21,24)          73.6065         D2E/DX2 =    0.0349             !
 ! D42   D(20,17,21,23)         84.6663         D2E/DX2 =    0.0299             !
 ! D43   D(20,17,21,24)        -48.1438         D2E/DX2 =    0.0273             !
 ! D44   D(22,17,21,23)        -32.7193         D2E/DX2 =    0.0283             !
 ! D45   D(22,17,21,24)       -165.5294         D2E/DX2 =    0.0353             !
 ! D46   D(17,21,23,28)       -158.8004         D2E/DX2 =    0.0181             !
 ! D47   D(17,21,23,29)         84.939          D2E/DX2 =    0.0243             !
 ! D48   D(17,21,23,30)        -39.8972         D2E/DX2 =    0.0266             !
 ! D49   D(24,21,23,28)        -26.777          D2E/DX2 =    0.0176             !
 ! D50   D(24,21,23,29)       -143.0377         D2E/DX2 =    0.0243             !
 ! D51   D(24,21,23,30)         92.1262         D2E/DX2 =    0.0305             !
 ! D52   D(17,21,24,25)       -156.381          D2E/DX2 =    0.0307             !
 ! D53   D(17,21,24,26)         77.4827         D2E/DX2 =    0.0264             !
 ! D54   D(17,21,24,27)        -40.8976         D2E/DX2 =    0.0189             !
 ! D55   D(23,21,24,25)         71.6199         D2E/DX2 =    0.0281             !
 ! D56   D(23,21,24,26)        -54.5165         D2E/DX2 =    0.0259             !
 ! D57   D(23,21,24,27)       -172.8967         D2E/DX2 =    0.0207             !
 ! D58   D(21,23,29,37)       -178.2918         D2E/DX2 =    0.0205             !
 ! D59   D(21,23,29,38)         61.3795         D2E/DX2 =    0.0208             !
 ! D60   D(21,23,29,39)        -58.895          D2E/DX2 =    0.02               !
 ! D61   D(28,23,29,37)         66.2667         D2E/DX2 =    0.0134             !
 ! D62   D(28,23,29,38)        -54.062          D2E/DX2 =    0.0133             !
 ! D63   D(28,23,29,39)       -174.3365         D2E/DX2 =    0.013              !
 ! D64   D(30,23,29,37)        -50.1515         D2E/DX2 =    0.0181             !
 ! D65   D(30,23,29,38)       -170.4802         D2E/DX2 =    0.0189             !
 ! D66   D(30,23,29,39)         69.2453         D2E/DX2 =    0.0182             !
 ! D67   D(21,23,30,40)       -168.6008         D2E/DX2 =    0.018              !
 ! D68   D(21,23,30,41)         73.0553         D2E/DX2 =    0.0178             !
 ! D69   D(21,23,30,42)        -48.6463         D2E/DX2 =    0.0167             !
 ! D70   D(28,23,30,40)        -50.3131         D2E/DX2 =    0.0131             !
 ! D71   D(28,23,30,41)       -168.6571         D2E/DX2 =    0.0136             !
 ! D72   D(28,23,30,42)         69.6413         D2E/DX2 =    0.0132             !
 ! D73   D(29,23,30,40)         66.2283         D2E/DX2 =    0.0163             !
 ! D74   D(29,23,30,41)        -52.1157         D2E/DX2 =    0.0168             !
 ! D75   D(29,23,30,42)       -173.8173         D2E/DX2 =    0.0168             !
 ! D76   D(21,24,25,31)         52.6049         D2E/DX2 =    0.0199             !
 ! D77   D(21,24,25,32)        -68.5648         D2E/DX2 =    0.0198             !
 ! D78   D(21,24,25,33)        172.3265         D2E/DX2 =    0.0201             !
 ! D79   D(26,24,25,31)       -178.4064         D2E/DX2 =    0.0184             !
 ! D80   D(26,24,25,32)         60.424          D2E/DX2 =    0.0179             !
 ! D81   D(26,24,25,33)        -58.6847         D2E/DX2 =    0.0177             !
 ! D82   D(27,24,25,31)        -62.1296         D2E/DX2 =    0.0133             !
 ! D83   D(27,24,25,32)        176.7008         D2E/DX2 =    0.0132             !
 ! D84   D(27,24,25,33)         57.5921         D2E/DX2 =    0.0134             !
 ! D85   D(21,24,26,34)        -53.7592         D2E/DX2 =    0.0188             !
 ! D86   D(21,24,26,35)       -173.265          D2E/DX2 =    0.0188             !
 ! D87   D(21,24,26,36)         67.8206         D2E/DX2 =    0.0189             !
 ! D88   D(25,24,26,34)        179.6846         D2E/DX2 =    0.0182             !
 ! D89   D(25,24,26,35)         60.1788         D2E/DX2 =    0.0174             !
 ! D90   D(25,24,26,36)        -58.7356         D2E/DX2 =    0.0181             !
 ! D91   D(27,24,26,34)         63.6938         D2E/DX2 =    0.0133             !
 ! D92   D(27,24,26,35)        -55.812          D2E/DX2 =    0.0133             !
 ! D93   D(27,24,26,36)       -174.7264         D2E/DX2 =    0.0138             !
 --------------------------------------------------------------------------------
 Trust Radius=3.00D-01 FncErr=5.00D-06 GrdErr=5.00D-06 EigMax=2.50D+02 EigMin=1.00D-04
 Number of steps in this run=    221 maximum allowed number of steps=    252.
 GradGradGradGradGradGradGradGradGradGradGradGradGradGradGradGradGradGrad

 Leave Link  103 at Wed Mar 18 15:10:02 2020, MaxMem=  7864320000 cpu:               0.8 elap:               0.1
 (Enter /apps/gaussian/g16-c01-avx/g16/l202.exe)
                          Input orientation:                          
 ---------------------------------------------------------------------
 Center     Atomic      Atomic             Coordinates (Angstroms)
 Number     Number       Type             X           Y           Z
 ---------------------------------------------------------------------
      1         15           0       -2.344564   -0.353666    0.258924
      2         16           0       -1.183128   -1.660302   -0.915008
      3          8           0       -2.645760    0.888101   -0.712796
      4          6           0        0.156923   -2.156243    0.242072
      5          6           0       -1.573530    1.816297   -1.036349
      6          8           0       -1.662569    0.009877    1.541617
      7          6           0       -3.973719   -1.066036    0.437258
      8          1           0       -3.890552   -1.967668    1.045371
      9          1           0       -4.382475   -1.316760   -0.542215
     10          1           0       -4.615847   -0.337694    0.936421
     11          1           0       -1.631998    1.974493   -2.112957
     12          1           0       -0.613932    1.347221   -0.805218
     13          6           0       -1.767108    3.102228   -0.267924
     14          1           0       -0.963467    3.798939   -0.517661
     15          1           0       -1.744568    2.916032    0.807951
     16          1           0       -2.721228    3.565074   -0.526932
     17          6           0        1.518742   -1.589823   -0.145123
     18          1           0       -0.148420   -1.877171    1.248900
     19          1           0        0.194263   -3.244611    0.188869
     20          1           0        2.268639   -2.156807    0.431611
     21          7           0        1.655359   -0.152628    0.036339
     22          1           0        1.693924   -1.830186   -1.195799
     23          6           0        2.657379    0.454779   -0.866689
     24          6           0        1.775793    0.245488    1.451902
     25          6           0        1.339861    1.696059    1.650678
     26          6           0        3.154837    0.017101    2.083793
     27          1           0        1.061123   -0.377970    1.995794
     28          1           0        2.951002    1.400314   -0.405743
     29          6           0        2.023136    0.778209   -2.218316
     30          6           0        3.937931   -0.367861   -1.082096
     31          1           0        0.347364    1.864566    1.229923
     32          1           0        2.038097    2.396441    1.184068
     33          1           0        1.305559    1.930698    2.717815
     34          1           0        3.493938   -1.014534    1.963592
     35          1           0        3.104058    0.230001    3.154760
     36          1           0        3.903777    0.683073    1.645782
     37          1           0        2.767464    1.199646   -2.899529
     38          1           0        1.210293    1.498721   -2.106509
     39          1           0        1.618290   -0.126687   -2.682509
     40          1           0        4.681561    0.251754   -1.589907
     41          1           0        3.749054   -1.237505   -1.717272
     42          1           0        4.371958   -0.717028   -0.144725
 ---------------------------------------------------------------------
                    Distance matrix (angstroms):
                    1          2          3          4          5
     1  P    0.000000
     2  S    2.105789   0.000000
     3  O    1.605286   2.945257   0.000000
     4  C    3.083344   1.838621   4.246744   0.000000
     5  C    2.642152   3.500554   1.454618   4.517732   0.000000
     6  O    1.497525   3.009048   2.611574   3.113109   3.149126
     7  C    1.787014   3.157399   2.627689   4.276546   4.029922
     8  H    2.369300   3.356740   3.577160   4.130727   4.901076
     9  H    2.392165   3.239261   2.811882   4.682517   4.236789
    10  H    2.370229   4.118330   2.846706   5.154472   4.217487
    11  H    3.399102   3.853349   2.041669   5.080293   1.089738
    12  H    2.649623   3.062880   2.085104   3.737017   1.092832
    13  C    3.543195   4.841637   2.423283   5.622590   1.510486
    14  H    4.444620   5.478088   3.367665   6.107100   2.138243
    15  H    3.369324   4.922056   2.690227   5.446454   2.154092
    16  H    4.014470   5.460853   2.684479   6.450473   2.152891
    17  C    4.076331   2.810302   4.879082   1.524895   4.685945
    18  H    2.850293   2.408350   4.210902   1.088494   4.571106
    19  H    3.848131   2.371874   5.094903   1.090306   5.499004
    20  H    4.956085   3.738261   5.893424   2.120205   5.718629
    21  N    4.011153   3.351888   4.488201   2.510401   3.931036
    22  H    4.539353   2.895710   5.143466   2.129826   4.898828
    23  C    5.190378   4.384678   5.323039   3.781411   4.447820
    24  C    4.331227   4.241405   4.964776   3.138908   4.458340
    25  C    4.439971   4.920709   4.703614   4.268928   3.965151
    26  C    5.806120   5.533935   6.498191   4.135560   5.943892
    27  H    3.823089   3.892789   4.762392   2.656196   4.577127
    28  H    5.617941   5.168923   5.628534   4.568987   4.587166
    29  C    5.147298   4.233803   4.906859   4.259962   3.925644
    30  C    6.424040   5.284276   6.712586   4.387226   5.928646
    31  H    3.620755   4.400889   3.699518   4.144759   2.971221
    32  H    5.256110   5.589237   5.273680   5.015287   4.279096
    33  H    4.958615   5.682099   5.335637   4.914444   4.732440
    34  H    6.118067   5.529765   6.962684   3.924640   6.533948
    35  H    6.197904   6.206144   6.960711   4.781582   6.477774
    36  H    6.483824   6.158381   6.964293   4.906225   6.203138
    37  H    6.206564   5.265435   5.846525   5.286452   4.764024
    38  H    4.654420   4.138547   4.145412   4.470367   2.999294
    39  H    4.940421   3.650203   4.805381   3.848098   4.083227
    40  H    7.290483   6.205323   7.407017   5.443064   6.471505
    41  H    6.466739   5.014859   6.813283   4.193628   6.174080
    42  H    6.738445   5.687011   7.221324   4.470736   6.523922
                    6          7          8          9         10
     6  O    0.000000
     7  C    2.778238   0.000000
     8  H    3.020075   1.090714   0.000000
     9  H    3.674263   1.090556   1.784965   0.000000
    10  H    3.034620   1.091776   1.787383   1.788686   0.000000
    11  H    4.149285   4.607827   5.533240   4.567789   4.852656
    12  H    2.897544   4.319227   5.014919   4.622540   4.678415
    13  C    3.584411   4.768736   5.651337   5.142259   4.625887
    14  H    4.368794   5.800127   6.653169   6.153096   5.706660
    15  H    2.998453   4.578579   5.339676   5.167013   4.341368
    16  H    4.247244   4.893422   5.869471   5.156770   4.578491
    17  C    3.940162   5.548031   5.551623   5.920862   6.353799
    18  H    2.437065   3.993697   3.748756   4.631347   4.735562
    19  H    3.983647   4.709560   4.364619   5.019724   5.669759
    20  H    4.623963   6.336942   6.192585   6.774313   7.138638
    21  N    3.647043   5.716779   5.921964   6.176193   6.338172
    22  H    4.705882   5.947519   6.018981   6.132977   6.825475
    23  C    4.965866   6.927093   7.238759   7.266579   7.535187
    24  C    3.447593   5.983851   6.096786   6.658932   6.438857
    25  C    3.445242   6.110294   6.414555   6.828688   6.333781
    26  C    4.847826   7.395984   7.392912   8.092353   7.862944
    27  H    2.788405   5.315270   5.286732   6.079109   5.775109
    28  H    5.197170   7.399006   7.762468   7.821828   7.879041
    29  C    5.320889   6.812898   7.291311   6.944786   7.434629
    30  C    6.196141   8.086414   8.268655   8.391724   8.788768
    31  H    2.752609   5.280956   5.716643   5.969311   5.437790
    32  H    4.417970   6.977707   7.362986   7.615225   7.198041
    33  H    3.725960   6.484761   6.707749   7.316249   6.586502
    34  H    5.274187   7.622220   7.502152   8.270930   8.202549
    35  H    5.037005   7.691518   7.629145   8.491659   8.052344
    36  H    5.607875   8.159342   8.254605   8.800491   8.609830
    37  H    6.384710   7.855635   8.362015   7.937937   8.461159
    38  H    4.876353   6.318442   6.925953   6.453913   6.824643
    39  H    5.350320   6.471930   6.901713   6.481227   7.211494
    40  H    7.079049   8.986647   9.238596   9.258220   9.652543
    41  H    6.439099   8.019515   8.156527   8.216374   8.821753
    42  H    6.307747   8.373221   8.440943   8.783950   9.060542
                   11         12         13         14         15
    11  H    0.000000
    12  H    1.772035   0.000000
    13  C    2.166608   2.167613   0.000000
    14  H    2.514062   2.493147   1.092526   0.000000
    15  H    3.070973   2.518296   1.092101   1.773948   0.000000
    16  H    2.496368   3.071972   1.091631   1.773275   1.776804
    17  C    5.148192   3.689208   5.729506   5.944653   5.644490
    18  H    5.323383   3.851339   5.451177   6.000272   5.071185
    19  H    5.989380   4.767212   6.658679   7.172944   6.488131
    20  H    6.225546   4.702890   6.665887   6.842407   6.479286
    21  N    4.466635   2.847358   4.732858   4.772845   4.644519
    22  H    5.136002   3.946476   6.096589   6.261681   6.193934
    23  C    4.718206   3.391417   5.190722   4.941230   5.314068
    24  C    5.225965   3.466870   4.865276   4.899973   4.465357
    25  C    4.803585   3.157598   3.913005   3.798569   3.422314
    26  C    6.660172   4.931453   6.266908   6.166871   5.834016
    27  H    5.446908   3.691579   5.023454   5.278540   4.487016
    28  H    4.924241   3.587639   5.017576   4.592276   5.081224
    29  C    3.847363   3.045448   4.855002   4.575679   5.284333
    30  C    6.129714   4.872128   6.726951   6.457903   6.829863
    31  H    3.886490   2.309444   2.871645   2.917898   2.379038
    32  H    4.951566   3.477266   4.133522   3.724550   3.836664
    33  H    5.653982   4.054214   4.441667   4.371168   3.731184
    34  H    7.199149   5.488059   7.043153   7.013886   6.650323
    35  H    7.295363   5.545544   6.610046   6.539782   6.019256
    36  H    6.814741   5.182489   6.455504   6.170833   6.131221
    37  H    4.535895   3.980171   5.577410   5.133173   6.086856
    38  H    2.881843   2.245910   3.849227   3.541282   4.385665
    39  H    3.911996   3.267942   5.264697   5.173256   5.722784
    40  H    6.565244   5.464250   7.173435   6.752672   7.358208
    41  H    6.279268   5.152505   7.166724   7.000907   7.335428
    42  H    6.867729   5.436587   7.231185   6.999986   7.177647
                   16         17         18         19         20
    16  H    0.000000
    17  C    6.685514   0.000000
    18  H    6.276222   2.192099   0.000000
    19  H    7.442061   2.145721   1.763799   0.000000
    20  H    7.652287   1.102922   2.566774   2.354840   0.000000
    21  N    5.770017   1.455033   2.774522   3.423218   2.132858
    22  H    7.003555   1.091963   3.061534   2.483322   1.756542
    23  C    6.222442   2.448989   4.217370   4.568000   2.942292
    24  C    5.929472   2.446412   2.872192   4.034511   2.656109
    25  C    4.972691   3.748855   3.891578   5.278209   4.146483
    26  C    7.343851   3.197980   3.898310   4.795258   2.870702
    27  H    6.018133   2.502304   2.066022   3.497721   2.658763
    28  H    6.072485   3.325689   4.804807   5.434013   3.717511
    29  C    5.756422   3.187494   4.877324   5.032136   3.961906
    30  C    7.753747   2.867679   4.940630   4.889385   2.877181
    31  H    3.923586   3.898163   3.774488   5.216408   4.527696
    32  H    5.190800   4.234002   4.800918   6.017608   4.620758
    33  H    5.423521   4.542678   4.332624   5.866375   4.781417
    34  H    8.111955   2.946020   3.810734   4.360130   2.270047
    35  H    7.655817   4.088302   4.318691   5.416303   3.716224
    36  H    7.544357   3.749905   4.809643   5.595515   3.494683
    37  H    6.430413   4.114267   5.931159   5.992577   4.755112
    38  H    4.713995   3.671686   4.949901   5.366588   4.574388
    39  H    6.091554   2.930700   4.652035   4.471477   3.773868
    40  H    8.179810   3.934746   5.993318   5.960239   3.963571
    41  H    8.145320   2.751376   4.939398   4.505373   2.766666
    42  H    8.294322   2.983725   4.870518   4.894190   2.613251
                   21         22         23         24         25
    21  N    0.000000
    22  H    2.081790   0.000000
    23  C    1.479340   2.501524   0.000000
    24  C    1.475405   3.365330   2.489349   0.000000
    25  C    2.474525   4.545568   3.100607   1.527646   0.000000
    26  C    2.543484   4.037631   3.023966   1.534018   2.510104
    27  H    2.059941   3.563093   3.381614   1.093285   2.120942
    28  H    2.070207   3.555357   1.092118   2.483060   2.629089
    29  C    2.466817   2.820930   1.527668   3.716917   4.034654
    30  C    2.550952   2.680837   1.537189   3.387062   4.298580
    31  H    2.684132   4.620448   3.423368   2.170506   1.091092
    32  H    2.821617   4.862776   2.891222   2.183377   1.093524
    33  H    3.413637   5.441640   4.105414   2.159534   1.093167
    34  H    2.799564   3.726538   3.296847   2.191234   3.476388
    35  H    3.459723   5.015995   4.052419   2.159688   2.742986
    36  H    2.888614   4.390274   2.813918   2.181144   2.756779
    37  H    3.418295   3.638003   2.167806   4.563856   4.794670
    38  H    2.741685   3.484955   2.172793   3.814797   3.764597
    39  H    2.719224   2.262285   2.171408   4.154115   4.709186
    40  H    3.459205   3.662754   2.159068   4.206677   4.873845
    41  H    2.938651   2.201536   2.186109   4.017050   5.074751
    42  H    2.780512   3.084760   2.198669   3.196206   4.270840
                   26         27         28         29         30
    26  C    0.000000
    27  H    2.132479   0.000000
    28  H    2.855279   3.535720   0.000000
    29  C    4.513112   4.474477   2.129172   0.000000
    30  C    3.283944   4.213020   2.134930   2.504179   0.000000
    31  H    3.467582   2.474869   3.109641   3.984813   4.818852
    32  H    2.778106   3.051349   2.086423   3.767641   4.047991
    33  H    2.735629   2.431257   3.570071   5.119428   5.162566
    34  H    1.092570   2.514923   3.426372   4.781793   3.145081
    35  H    1.093103   2.426194   3.751032   5.508073   4.359327
    36  H    1.093748   3.054342   2.372967   4.298502   2.923517
    37  H    5.136338   5.418916   2.508569   1.093473   2.670231
    38  H    4.851298   4.513658   2.435643   1.091949   3.460283
    39  H    5.009919   4.718060   3.048199   1.094629   2.828466
    40  H    3.985225   5.134333   2.390871   2.781955   1.093060
    41  H    4.046632   4.663757   3.052062   2.700544   1.093345
    42  H    2.643223   3.957071   2.563276   3.471668   1.090395
                   31         32         33         34         35
    31  H    0.000000
    32  H    1.773012   0.000000
    33  H    1.770970   1.762359   0.000000
    34  H    4.327634   3.789707   3.745964   0.000000
    35  H    3.738470   3.116627   2.513541   1.766283   0.000000
    36  H    3.770536   2.574796   3.075153   1.775061   1.766872
    37  H    4.832326   4.317413   5.850312   5.392616   6.140677
    38  H    3.465583   3.509852   4.844563   5.300680   5.733842
    39  H    4.570280   4.636036   5.787411   5.088475   6.033940
    40  H    5.416444   4.391186   5.724745   3.954907   5.000085
    41  H    5.466287   4.954867   5.973121   3.696426   5.128966
    42  H    4.975102   4.111726   4.960584   2.303136   3.659377
                   36         37         38         39         40
    36  H    0.000000
    37  H    4.713588   0.000000
    38  H    4.690398   1.772881   0.000000
    39  H    4.961176   1.768293   1.772057   0.000000
    40  H    3.355691   2.505469   3.724447   3.274237   0.000000
    41  H    3.875912   2.881138   3.752831   2.589547   1.761727
    42  H    2.320645   3.719810   4.330620   3.790981   1.767185
                   41         42
    41  H    0.000000
    42  H    1.769692   0.000000
 Stoichiometry    C11H26NO2PS
 Framework group  C1[X(C11H26NO2PS)]
 Deg. of freedom   120
 Full point group                 C1      NOp   1
 RotChk:  IX=0 Diff= 1.53D-15
 Largest Abelian subgroup         C1      NOp   1
 Largest concise Abelian subgroup C1      NOp   1
                         Standard orientation:                         
 ---------------------------------------------------------------------
 Center     Atomic      Atomic             Coordinates (Angstroms)
 Number     Number       Type             X           Y           Z
 ---------------------------------------------------------------------
      1         15           0       -2.333211   -0.354014    0.285124
      2         16           0       -1.182568   -1.666275   -0.893155
      3          8           0       -2.639971    0.884925   -0.688464
      4          6           0        0.165489   -2.160287    0.255418
      5          6           0       -1.568890    1.810464   -1.023240
      6          8           0       -1.641007    0.012834    1.561391
      7          6           0       -3.961989   -1.063404    0.478171
      8          1           0       -3.875516   -1.963111    1.088668
      9          1           0       -4.378505   -1.316814   -0.497334
     10          1           0       -4.599276   -0.332454    0.979722
     11          1           0       -1.635277    1.965133   -2.099901
     12          1           0       -0.608244    1.340766   -0.797795
     13          6           0       -1.754803    3.099247   -0.257704
     14          1           0       -0.952076    3.793942   -0.515856
     15          1           0       -1.724388    2.916627    0.818590
     16          1           0       -2.710191    3.562614   -0.511044
     17          6           0        1.525150   -1.597157   -0.143969
     18          1           0       -0.131824   -1.877394    1.263582
     19          1           0        0.200865   -3.248880    0.205598
     20          1           0        2.278576   -2.163297    0.428981
     21          7           0        1.665197   -0.159562    0.031616
     22          1           0        1.692031   -1.841298   -1.195125
     23          6           0        2.661225    0.443349   -0.881003
     24          6           0        1.796912    0.243124    1.444880
     25          6           0        1.364579    1.694987    1.642065
     26          6           0        3.180370    0.014844    2.067088
     27          1           0        1.085485   -0.377463    1.996257
     28          1           0        2.959684    1.389995   -0.425476
     29          6           0        2.017235    0.763168   -2.228876
     30          6           0        3.938928   -0.381878   -1.103320
     31          1           0        0.369168    1.863531    1.228264
     32          1           0        2.060266    2.392780    1.167833
     33          1           0        1.338690    1.933254    2.708635
     34          1           0        3.517071   -1.017682    1.947798
     35          1           0        3.138003    0.231410    3.137686
     36          1           0        3.926928    0.678249    1.621187
     37          1           0        2.756990    1.181231   -2.917113
     38          1           0        1.206296    1.485237   -2.113350
     39          1           0        1.607590   -0.142688   -2.686945
     40          1           0        4.679582    0.234945   -1.618823
     41          1           0        3.744003   -1.253371   -1.734119
     42          1           0        4.379536   -0.728531   -0.168089
 ---------------------------------------------------------------------
 Rotational constants (GHZ):           0.5936604           0.2899673           0.2675633
 Leave Link  202 at Wed Mar 18 15:10:02 2020, MaxMem=  7864320000 cpu:               0.2 elap:               0.0
 (Enter /apps/gaussian/g16-c01-avx/g16/l301.exe)
 Standard basis: 6-311++G(d,p) (5D, 7F)
 Ernie: Thresh=  0.10000D-02 Tol=  0.10000D-05 Strict=F.
 There are   566 symmetry adapted cartesian basis functions of A   symmetry.
 There are   550 symmetry adapted basis functions of A   symmetry.
   550 basis functions,   838 primitive gaussians,   566 cartesian basis functions
    73 alpha electrons       73 beta electrons
       nuclear repulsion energy      1606.2719833999 Hartrees.
 IExCor= 4336 DFT=T Ex+Corr=M062X ExCW=0 ScaHFX=  0.540000
 ScaDFX=  1.000000  1.000000  1.000000  1.000000 ScalE2=  1.000000  1.000000
 IRadAn=      5 IRanWt=     -1 IRanGd=            0 ICorTp=0 IEmpDi=  4
 NAtoms=   42 NActive=   42 NUniq=   42 SFac= 1.00D+00 NAtFMM=   60 NAOKFM=F Big=F
 Integral buffers will be    131072 words long.
 Raffenetti 2 integral format.
 Two-electron integral symmetry is turned on.
 ------------------------------------------------------------------------------
 Polarizable Continuum Model (PCM)
 =================================
 Model                : PCM.
 Atomic radii         : SMD-Coulomb.
 Polarization charges : Total charges.
 Charge compensation  : None.
 Solution method      : On-the-fly selection.
 Cavity type          : VdW (van der Waals Surface) (Alpha=1.000).
 Cavity algorithm     : GePol (No added spheres)
                        Default sphere list used, NSphG=   42.
                        Lebedev-Laikov grids with approx.  5.0 points / Ang**2.
                        Smoothing algorithm: York/Karplus (Gamma=1.0000).
                        Polarization charges: spherical gaussians, with
                                              point-specific exponents (IZeta= 3).
                        Self-potential: point-specific (ISelfS= 7).
                        Self-field    : sphere-specific E.n sum rule (ISelfD= 2).
 1st derivatives      : Analytical E(r).r(x)/FMM algorithm (CHGder, D1EAlg=3).
                        Cavity 1st derivative terms included.
 Solvent              : Water, Eps=  78.355300 Eps(inf)=   1.777849
 ------------------------------------------------------------------------------
 GePol: Number of generator spheres                  =      42
 GePol: Total number of spheres                      =      42
 GePol: Number of exposed spheres                    =      42 (100.00%)
 GePol: Number of points                             =    2819
 GePol: Average weight of points                     =       0.11
 GePol: Minimum weight of points                     =   0.22D-10
 GePol: Maximum weight of points                     =    0.21991
 GePol: Number of points with low weight             =     174
 GePol: Fraction of low-weight points (<1% of avg)   =       6.17%
 GePol: Cavity surface area                          =    320.871 Ang**2
 GePol: Cavity volume                                =    301.495 Ang**3
 ------------------------------------------------------------------------------
 Atomic radii for non-electrostatic terms: SMD-CDS.
 ------------------------------------------------------------------------------
 PCM non-electrostatic energy =         0.0130453958 Hartrees.
 Nuclear repulsion after PCM non-electrostatic terms =     1606.2850287957 Hartrees.
 Leave Link  301 at Wed Mar 18 15:10:02 2020, MaxMem=  7864320000 cpu:               3.6 elap:               0.2
 (Enter /apps/gaussian/g16-c01-avx/g16/l302.exe)
 NPDir=0 NMtPBC=     1 NCelOv=     1 NCel=       1 NClECP=     1 NCelD=      1
         NCelK=      1 NCelE2=     1 NClLst=     1 CellRange=     0.0.
 One-electron integrals computed using PRISM.
 One-electron integral symmetry used in STVInt
 NBasis=   550 RedAO= T EigKep=  4.51D-06  NBF=   550
 NBsUse=   550 1.00D-06 EigRej= -1.00D+00 NBFU=   550
 Precomputing XC quadrature grid using
 IXCGrd= 4 IRadAn=           5 IRanWt=          -1 IRanGd=           0 AccXCQ= 0.00D+00.
 Generated NRdTot=       0 NPtTot=           0 NUsed=           0 NTot=          32
 NSgBfM=   566   566   566   566   566 MxSgAt=    42 MxSgA2=    42.
 Leave Link  302 at Wed Mar 18 15:10:03 2020, MaxMem=  7864320000 cpu:              18.8 elap:               1.0
 (Enter /apps/gaussian/g16-c01-avx/g16/l303.exe)
 DipDrv:  MaxL=1.
 Leave Link  303 at Wed Mar 18 15:10:03 2020, MaxMem=  7864320000 cpu:               2.2 elap:               0.1
 (Enter /apps/gaussian/g16-c01-avx/g16/l401.exe)
 Initial guess from the checkpoint file:  "vx_sp.chk"
 B after Tr=    -0.000000    0.000000    0.000000
         Rot=    1.000000    0.000000    0.000000    0.000000 Ang=   0.00 deg.
 Guess basis will be translated and rotated to current coordinates.
 JPrj=2 DoOrth=T DoCkMO=T.
 Leave Link  401 at Wed Mar 18 15:10:04 2020, MaxMem=  7864320000 cpu:              18.1 elap:               0.9
 (Enter /apps/gaussian/g16-c01-avx/g16/l502.exe)
 Integral symmetry usage will be decided dynamically.
 Closed shell SCF:
 Using DIIS extrapolation, IDIIS=  1040.
 NGot=  7864320000 LenX=  7863661348 LenY=  7863340426
 Requested convergence on RMS density matrix=1.00D-09 within 128 cycles.
 Requested convergence on MAX density matrix=1.00D-07.
 Requested convergence on             energy=1.00D-07.
 No special actions if energy rises.
 Fock matrices will be formed incrementally for  20 cycles.

 Cycle   1  Pass 1  IDiag  1:
 FoFJK:  IHMeth= 1 ICntrl=       0 DoSepK=F KAlg= 0 I1Cent=           0 FoldK=F
 IRaf= 900000000 NMat=       1 IRICut=       1 DoRegI=T DoRafI=F ISym2E= 0 IDoP0=0 IntGTp=1.
 FoFCou: FMM=F IPFlag=           0 FMFlag=      100000 FMFlg1=           0
         NFxFlg=           0 DoJE=F BraDBF=F KetDBF=F FulRan=T
         wScrn=  0.000000 ICntrl=         0 IOpCl=  0 I1Cent=           0 NGrid=           0
         NMat0=    1 NMatS0=      1 NMatT0=    0 NMatD0=    1 NMtDS0=    0 NMtDT0=    0
 Symmetry not used in FoFCou.
 Inv3:  Mode=1 IEnd=    23840283.
 Iteration    1 A*A^-1 deviation from unit magnitude is 5.55D-15 for   2775.
 Iteration    1 A*A^-1 deviation from orthogonality  is 2.25D-15 for   2800   2663.
 Iteration    1 A^-1*A deviation from unit magnitude is 5.55D-15 for   2775.
 Iteration    1 A^-1*A deviation from orthogonality  is 2.32D-15 for   2814   2713.
 E= -1379.51295760588    
 DIIS: error= 5.01D-10 at cycle   1 NSaved=   1.
 NSaved= 1 IEnMin= 1 EnMin= -1379.51295760588     IErMin= 1 ErrMin= 5.01D-10
 ErrMax= 5.01D-10  0.00D+00 EMaxC= 1.00D-01 BMatC= 2.87D-16 BMatP= 2.87D-16
 IDIUse=1 WtCom= 1.00D+00 WtEn= 0.00D+00
 Coeff-Com:  0.100D+01
 Coeff:      0.100D+01
 Gap=     0.264 Goal=   None    Shift=    0.000
 RMSDP=3.01D-10 MaxDP=3.65D-08              OVMax= 4.43D-09

 Error on total polarization charges =  0.06393
 SCF Done:  E(RM062X) =  -1379.51295761     A.U. after    1 cycles
            NFock=  1  Conv=0.30D-09     -V/T= 2.0027
 KE= 1.375866011805D+03 PE=-6.462647864133D+03 EE= 2.100983865927D+03
 SMD-CDS (non-electrostatic) energy       (kcal/mol) =       8.19
 (included in total energy above)
 Leave Link  502 at Wed Mar 18 15:10:34 2020, MaxMem=  7864320000 cpu:             558.9 elap:              29.7
 (Enter /apps/gaussian/g16-c01-avx/g16/l601.exe)
 Copying SCF densities to generalized density rwf, IOpCl= 0 IROHF=0.

 **********************************************************************

            Population analysis using the SCF Density.

 **********************************************************************

 Orbital symmetries:
       Occupied  (A) (A) (A) (A) (A) (A) (A) (A) (A) (A) (A) (A)
                 (A) (A) (A) (A) (A) (A) (A) (A) (A) (A) (A) (A)
                 (A) (A) (A) (A) (A) (A) (A) (A) (A) (A) (A) (A)
                 (A) (A) (A) (A) (A) (A) (A) (A) (A) (A) (A) (A)
                 (A) (A) (A) (A) (A) (A) (A) (A) (A) (A) (A) (A)
                 (A) (A) (A) (A) (A) (A) (A) (A) (A) (A) (A) (A)
                 (A)
       Virtual   (A) (A) (A) (A) (A) (A) (A) (A) (A) (A) (A) (A)
                 (A) (A) (A) (A) (A) (A) (A) (A) (A) (A) (A) (A)
                 (A) (A) (A) (A) (A) (A) (A) (A) (A) (A) (A) (A)
                 (A) (A) (A) (A) (A) (A) (A) (A) (A) (A) (A) (A)
                 (A) (A) (A) (A) (A) (A) (A) (A) (A) (A) (A) (A)
                 (A) (A) (A) (A) (A) (A) (A) (A) (A) (A) (A) (A)
                 (A) (A) (A) (A) (A) (A) (A) (A) (A) (A) (A) (A)
                 (A) (A) (A) (A) (A) (A) (A) (A) (A) (A) (A) (A)
                 (A) (A) (A) (A) (A) (A) (A) (A) (A) (A) (A) (A)
                 (A) (A) (A) (A) (A) (A) (A) (A) (A) (A) (A) (A)
                 (A) (A) (A) (A) (A) (A) (A) (A) (A) (A) (A) (A)
                 (A) (A) (A) (A) (A) (A) (A) (A) (A) (A) (A) (A)
                 (A) (A) (A) (A) (A) (A) (A) (A) (A) (A) (A) (A)
                 (A) (A) (A) (A) (A) (A) (A) (A) (A) (A) (A) (A)
                 (A) (A) (A) (A) (A) (A) (A) (A) (A) (A) (A) (A)
                 (A) (A) (A) (A) (A) (A) (A) (A) (A) (A) (A) (A)
                 (A) (A) (A) (A) (A) (A) (A) (A) (A) (A) (A) (A)
                 (A) (A) (A) (A) (A) (A) (A) (A) (A) (A) (A) (A)
                 (A) (A) (A) (A) (A) (A) (A) (A) (A) (A) (A) (A)
                 (A) (A) (A) (A) (A) (A) (A) (A) (A) (A) (A) (A)
                 (A) (A) (A) (A) (A) (A) (A) (A) (A) (A) (A) (A)
                 (A) (A) (A) (A) (A) (A) (A) (A) (A) (A) (A) (A)
                 (A) (A) (A) (A) (A) (A) (A) (A) (A) (A) (A) (A)
                 (A) (A) (A) (A) (A) (A) (A) (A) (A) (A) (A) (A)
                 (A) (A) (A) (A) (A) (A) (A) (A) (A) (A) (A) (A)
                 (A) (A) (A) (A) (A) (A) (A) (A) (A) (A) (A) (A)
                 (A) (A) (A) (A) (A) (A) (A) (A) (A) (A) (A) (A)
                 (A) (A) (A) (A) (A) (A) (A) (A) (A) (A) (A) (A)
                 (A) (A) (A) (A) (A) (A) (A) (A) (A) (A) (A) (A)
                 (A) (A) (A) (A) (A) (A) (A) (A) (A) (A) (A) (A)
                 (A) (A) (A) (A) (A) (A) (A) (A) (A) (A) (A) (A)
                 (A) (A) (A) (A) (A) (A) (A) (A) (A) (A) (A) (A)
                 (A) (A) (A) (A) (A) (A) (A) (A) (A) (A) (A) (A)
                 (A) (A) (A) (A) (A) (A) (A) (A) (A) (A) (A) (A)
                 (A) (A) (A) (A) (A) (A) (A) (A) (A) (A) (A) (A)
                 (A) (A) (A) (A) (A) (A) (A) (A) (A) (A) (A) (A)
                 (A) (A) (A) (A) (A) (A) (A) (A) (A) (A) (A) (A)
                 (A) (A) (A) (A) (A) (A) (A) (A) (A) (A) (A) (A)
                 (A) (A) (A) (A) (A) (A) (A) (A) (A) (A) (A) (A)
                 (A) (A) (A) (A) (A) (A) (A) (A) (A)
 The electronic state is 1-A.
 Alpha  occ. eigenvalues --  -89.89491 -78.13876 -19.65741 -19.59773 -14.72428
 Alpha  occ. eigenvalues --  -10.59211 -10.56549 -10.55535 -10.55512 -10.55464
 Alpha  occ. eigenvalues --  -10.54140 -10.52224 -10.51070 -10.51069 -10.51040
 Alpha  occ. eigenvalues --  -10.51025  -8.26144  -6.95251  -6.18259  -6.18030
 Alpha  occ. eigenvalues --   -6.17683  -5.07064  -5.06985  -5.06831  -1.18952
 Alpha  occ. eigenvalues --   -1.10191  -1.02406  -0.89637  -0.87553  -0.86898
 Alpha  occ. eigenvalues --   -0.83824  -0.82273  -0.77791  -0.76715  -0.75983
 Alpha  occ. eigenvalues --   -0.72322  -0.69312  -0.67678  -0.63604  -0.60081
 Alpha  occ. eigenvalues --   -0.56842  -0.55964  -0.55517  -0.55137  -0.53363
 Alpha  occ. eigenvalues --   -0.51800  -0.50005  -0.49547  -0.49145  -0.48771
 Alpha  occ. eigenvalues --   -0.48042  -0.47405  -0.46876  -0.46247  -0.45527
 Alpha  occ. eigenvalues --   -0.44577  -0.43845  -0.43518  -0.43292  -0.43107
 Alpha  occ. eigenvalues --   -0.42162  -0.41276  -0.40520  -0.40387  -0.39098
 Alpha  occ. eigenvalues --   -0.38900  -0.38521  -0.37245  -0.36826  -0.36533
 Alpha  occ. eigenvalues --   -0.34684  -0.30578  -0.26324
 Alpha virt. eigenvalues --    0.00050   0.00871   0.00957   0.01215   0.02190
 Alpha virt. eigenvalues --    0.02610   0.02618   0.03015   0.03156   0.03980
 Alpha virt. eigenvalues --    0.04371   0.04805   0.04899   0.05142   0.05401
 Alpha virt. eigenvalues --    0.05657   0.05978   0.06804   0.07054   0.07127
 Alpha virt. eigenvalues --    0.07710   0.07955   0.08467   0.08766   0.08892
 Alpha virt. eigenvalues --    0.09334   0.09778   0.09988   0.10099   0.10970
 Alpha virt. eigenvalues --    0.11072   0.11438   0.11953   0.12015   0.12139
 Alpha virt. eigenvalues --    0.12373   0.12868   0.13430   0.13630   0.13783
 Alpha virt. eigenvalues --    0.14047   0.14363   0.14680   0.14924   0.15114
 Alpha virt. eigenvalues --    0.15253   0.15592   0.15811   0.16263   0.16307
 Alpha virt. eigenvalues --    0.16529   0.16802   0.16888   0.17051   0.17327
 Alpha virt. eigenvalues --    0.17504   0.17690   0.17917   0.18025   0.18398
 Alpha virt. eigenvalues --    0.18682   0.18989   0.19314   0.19492   0.19704
 Alpha virt. eigenvalues --    0.19850   0.20244   0.20348   0.20965   0.21158
 Alpha virt. eigenvalues --    0.21430   0.21525   0.21836   0.22083   0.22773
 Alpha virt. eigenvalues --    0.22847   0.22979   0.23315   0.23666   0.24038
 Alpha virt. eigenvalues --    0.24353   0.24526   0.25024   0.25519   0.25584
 Alpha virt. eigenvalues --    0.26236   0.26475   0.26702   0.26905   0.27480
 Alpha virt. eigenvalues --    0.27852   0.28458   0.28560   0.28972   0.29977
 Alpha virt. eigenvalues --    0.30423   0.30818   0.31211   0.31678   0.31866
 Alpha virt. eigenvalues --    0.32441   0.32809   0.33328   0.33760   0.34054
 Alpha virt. eigenvalues --    0.34517   0.34790   0.35172   0.35404   0.35758
 Alpha virt. eigenvalues --    0.35976   0.36509   0.36834   0.37642   0.37723
 Alpha virt. eigenvalues --    0.38234   0.38420   0.39276   0.39534   0.39698
 Alpha virt. eigenvalues --    0.40266   0.40723   0.41070   0.41847   0.42141
 Alpha virt. eigenvalues --    0.42676   0.43075   0.44016   0.44210   0.45289
 Alpha virt. eigenvalues --    0.46313   0.46614   0.47604   0.47695   0.48534
 Alpha virt. eigenvalues --    0.49451   0.49869   0.51173   0.51788   0.52572
 Alpha virt. eigenvalues --    0.53584   0.54136   0.56035   0.57257   0.57778
 Alpha virt. eigenvalues --    0.58043   0.58892   0.59835   0.60397   0.60668
 Alpha virt. eigenvalues --    0.61757   0.62948   0.63087   0.63868   0.64769
 Alpha virt. eigenvalues --    0.65221   0.65803   0.66975   0.67945   0.68366
 Alpha virt. eigenvalues --    0.68616   0.69012   0.70240   0.70893   0.71580
 Alpha virt. eigenvalues --    0.71902   0.72632   0.73047   0.73649   0.73927
 Alpha virt. eigenvalues --    0.74934   0.75135   0.75781   0.75961   0.76521
 Alpha virt. eigenvalues --    0.77108   0.77349   0.77763   0.77867   0.78813
 Alpha virt. eigenvalues --    0.79993   0.80917   0.81163   0.82042   0.82118
 Alpha virt. eigenvalues --    0.82611   0.82879   0.83256   0.84391   0.84743
 Alpha virt. eigenvalues --    0.85114   0.85749   0.86258   0.87172   0.88091
 Alpha virt. eigenvalues --    0.88838   0.89179   0.90083   0.91087   0.92616
 Alpha virt. eigenvalues --    0.93212   0.94826   0.95463   0.96670   0.97727
 Alpha virt. eigenvalues --    0.98927   1.00013   1.00490   1.01657   1.02025
 Alpha virt. eigenvalues --    1.03833   1.05397   1.06147   1.07505   1.08230
 Alpha virt. eigenvalues --    1.09251   1.10516   1.11456   1.14108   1.15534
 Alpha virt. eigenvalues --    1.16070   1.19013   1.19623   1.20063   1.21184
 Alpha virt. eigenvalues --    1.23351   1.24698   1.25908   1.26107   1.27091
 Alpha virt. eigenvalues --    1.28586   1.29564   1.31395   1.32650   1.33852
 Alpha virt. eigenvalues --    1.35286   1.36036   1.37141   1.38251   1.41681
 Alpha virt. eigenvalues --    1.42500   1.45951   1.47399   1.48992   1.50101
 Alpha virt. eigenvalues --    1.52098   1.52647   1.54036   1.54894   1.55425
 Alpha virt. eigenvalues --    1.55445   1.55984   1.56844   1.57449   1.58473
 Alpha virt. eigenvalues --    1.61069   1.61865   1.62192   1.62521   1.62654
 Alpha virt. eigenvalues --    1.63857   1.64109   1.64794   1.64912   1.65302
 Alpha virt. eigenvalues --    1.65476   1.66631   1.67214   1.67796   1.68586
 Alpha virt. eigenvalues --    1.68685   1.69020   1.70497   1.71752   1.71870
 Alpha virt. eigenvalues --    1.72090   1.73552   1.74435   1.74845   1.75458
 Alpha virt. eigenvalues --    1.76034   1.76365   1.77343   1.77580   1.78356
 Alpha virt. eigenvalues --    1.78785   1.79784   1.79946   1.81658   1.81883
 Alpha virt. eigenvalues --    1.83197   1.83350   1.85018   1.85847   1.86739
 Alpha virt. eigenvalues --    1.88039   1.88840   1.89497   1.89683   1.90706
 Alpha virt. eigenvalues --    1.91003   1.92416   1.92629   1.93716   1.94049
 Alpha virt. eigenvalues --    1.95327   1.96570   1.98694   1.99359   2.01160
 Alpha virt. eigenvalues --    2.01760   2.03997   2.04421   2.06343   2.07124
 Alpha virt. eigenvalues --    2.09044   2.10054   2.10704   2.12665   2.13617
 Alpha virt. eigenvalues --    2.15403   2.17464   2.17786   2.18288   2.20382
 Alpha virt. eigenvalues --    2.22209   2.23190   2.23639   2.23696   2.24568
 Alpha virt. eigenvalues --    2.26177   2.27566   2.30248   2.31347   2.32612
 Alpha virt. eigenvalues --    2.33913   2.36689   2.37216   2.38248   2.40161
 Alpha virt. eigenvalues --    2.41610   2.42188   2.44415   2.47233   2.53092
 Alpha virt. eigenvalues --    2.53889   2.54239   2.54668   2.55950   2.56469
 Alpha virt. eigenvalues --    2.57312   2.57925   2.58130   2.58844   2.59002
 Alpha virt. eigenvalues --    2.59275   2.59812   2.60939   2.61361   2.61963
 Alpha virt. eigenvalues --    2.62364   2.63488   2.63618   2.64934   2.66253
 Alpha virt. eigenvalues --    2.67089   2.67483   2.68501   2.68782   2.70139
 Alpha virt. eigenvalues --    2.70405   2.71292   2.72463   2.72912   2.75188
 Alpha virt. eigenvalues --    2.75437   2.76425   2.77190   2.78992   2.79495
 Alpha virt. eigenvalues --    2.80516   2.83238   2.83918   2.85188   2.85461
 Alpha virt. eigenvalues --    2.86900   2.90484   2.90591   2.92557   2.93964
 Alpha virt. eigenvalues --    2.94274   2.95469   2.96798   2.97199   2.99170
 Alpha virt. eigenvalues --    2.99409   3.00701   3.01216   3.01431   3.04432
 Alpha virt. eigenvalues --    3.06134   3.07089   3.08469   3.09658   3.10138
 Alpha virt. eigenvalues --    3.14861   3.16073   3.17645   3.19091   3.24039
 Alpha virt. eigenvalues --    3.27952   3.30623   3.32794   3.36230   3.38664
 Alpha virt. eigenvalues --    3.44445   3.45765   3.48487   3.64832   3.68633
 Alpha virt. eigenvalues --    3.73484   3.77564   3.79669   3.79913   3.82606
 Alpha virt. eigenvalues --    3.84035   3.85068   3.85804   3.86627   3.87461
 Alpha virt. eigenvalues --    3.88074   3.89470   3.89644   3.91339   3.91879
 Alpha virt. eigenvalues --    3.92469   3.94954   4.08535   4.16328   4.17411
 Alpha virt. eigenvalues --    4.19774   4.28949   4.33825   4.34540   4.48075
 Alpha virt. eigenvalues --    4.99248   4.99351   5.19710   5.23808   5.27802
 Alpha virt. eigenvalues --    5.33438   5.40078   5.59127   7.42443   8.17109
 Alpha virt. eigenvalues --   14.17373  14.19902  14.28644  17.59840  17.69669
 Alpha virt. eigenvalues --   17.71559  23.91265  23.95577  23.97399  23.97644
 Alpha virt. eigenvalues --   24.02897  24.04814  24.08027  24.09118  24.10127
 Alpha virt. eigenvalues --   24.10681  24.13054  35.69709  50.04427  50.07072
 Alpha virt. eigenvalues --  163.71910 189.50146
          Condensed to atoms (all electrons):
               1          2          3          4          5          6
     1  P   17.022921   0.597567  -0.379471  -0.386912  -0.253834  -0.085787
     2  S    0.597567  16.374309   0.026280   0.128953  -0.280254  -0.200296
     3  O   -0.379471   0.026280   8.464963   0.022082  -0.074857  -0.010613
     4  C   -0.386912   0.128953   0.022082   7.994204  -0.230462  -0.134842
     5  C   -0.253834  -0.280254  -0.074857  -0.230462   8.768053   0.195029
     6  O   -0.085787  -0.200296  -0.010613  -0.134842   0.195029   8.572108
     7  C   -0.457463  -0.326558  -0.093298   0.176853  -0.197158  -0.111096
     8  H   -0.144329   0.002397   0.032617   0.021836  -0.008281  -0.003127
     9  H   -0.188354  -0.043039   0.005983   0.008993  -0.032544   0.024219
    10  H   -0.015127   0.007356  -0.006687  -0.004589   0.005910  -0.029933
    11  H   -0.024432  -0.036547  -0.102408  -0.016215   0.796814   0.003906
    12  H   -0.252042   0.199733   0.199665   0.478231  -3.143868  -0.002033
    13  C   -0.064570  -0.032376  -0.071782  -0.060234  -0.121461  -0.084468
    14  H    0.031224   0.004085   0.021800   0.002905  -0.170857  -0.012055
    15  H   -0.040089  -0.021871  -0.038804   0.001831   0.161186   0.029222
    16  H    0.026503  -0.000461  -0.005886  -0.004742  -0.066572   0.000704
    17  C   -0.006617  -0.818625  -0.051927  -2.445562   0.712969   0.191022
    18  H   -0.159949  -0.110970   0.030409   0.297858  -0.085879   0.054444
    19  H   -0.001494  -0.053498  -0.006805   0.311294   0.035729   0.008724
    20  H    0.009490   0.009892   0.000130   0.135646  -0.015821  -0.008365
    21  N   -0.024992   0.121090  -0.020226   0.018418   0.274020   0.025527
    22  H   -0.044006  -0.059586   0.006023  -0.007117  -0.037540  -0.005371
    23  C    0.057972   0.126158   0.024041   0.003160  -0.593701   0.002702
    24  C    0.086584   0.038071   0.060858   0.158460  -0.559448  -0.038688
    25  C    0.052946   0.040521  -0.041311   0.151881   0.164378  -0.027841
    26  C   -0.054180   0.034877   0.003496   0.112308  -0.022244   0.000192
    27  H   -0.021850  -0.069760   0.000843  -0.028541   0.009313   0.010539
    28  H   -0.000550   0.008408   0.006508  -0.006967  -0.094771   0.000526
    29  C   -0.094231  -0.058295  -0.013293  -0.025761   0.385657   0.007009
    30  C    0.035372  -0.017864  -0.006100  -0.115064   0.099996  -0.003039
    31  H   -0.086010   0.116286   0.014501  -0.087403   0.209635  -0.012668
    32  H    0.000891  -0.011205  -0.003605   0.002412   0.009932   0.004240
    33  H    0.014726   0.000437  -0.000286  -0.001087  -0.005238  -0.002730
    34  H    0.003809   0.004899  -0.000355  -0.015193   0.007953   0.001661
    35  H   -0.000988   0.002276   0.000044   0.005045  -0.001202  -0.000740
    36  H    0.002052  -0.001307   0.000175   0.002832  -0.008120  -0.000962
    37  H    0.000956  -0.002279   0.000810   0.005859  -0.012892  -0.000659
    38  H   -0.031391  -0.022527  -0.033207  -0.045248   0.443455   0.010297
    39  H    0.008217   0.026714   0.006355   0.050863  -0.117476  -0.003289
    40  H   -0.000100  -0.000925  -0.000233  -0.008274   0.002947   0.000058
    41  H    0.001896   0.002731  -0.000063  -0.046779   0.006931   0.001156
    42  H    0.000278  -0.000010   0.000020   0.008022  -0.000764  -0.000613
               7          8          9         10         11         12
     1  P   -0.457463  -0.144329  -0.188354  -0.015127  -0.024432  -0.252042
     2  S   -0.326558   0.002397  -0.043039   0.007356  -0.036547   0.199733
     3  O   -0.093298   0.032617   0.005983  -0.006687  -0.102408   0.199665
     4  C    0.176853   0.021836   0.008993  -0.004589  -0.016215   0.478231
     5  C   -0.197158  -0.008281  -0.032544   0.005910   0.796814  -3.143868
     6  O   -0.111096  -0.003127   0.024219  -0.029933   0.003906  -0.002033
     7  C    6.503285   0.425388   0.485178   0.403402  -0.015225   0.232753
     8  H    0.425388   0.510988  -0.027243  -0.026431  -0.000905   0.003630
     9  H    0.485178  -0.027243   0.502604  -0.036441  -0.004778   0.033257
    10  H    0.403402  -0.026431  -0.036441   0.499487   0.001650  -0.019506
    11  H   -0.015225  -0.000905  -0.004778   0.001650   0.564621  -0.533904
    12  H    0.232753   0.003630   0.033257  -0.019506  -0.533904   6.195043
    13  C   -0.026721  -0.000908   0.005483   0.002920   0.016068  -0.822748
    14  H    0.005475   0.000148   0.000101   0.000635  -0.020920   0.145770
    15  H    0.000547  -0.000795  -0.000509  -0.002443   0.016775  -0.118489
    16  H   -0.002618   0.000081   0.000268   0.000240  -0.006111  -0.045071
    17  C   -0.029912  -0.017526   0.005789  -0.000499   0.066298  -1.253395
    18  H   -0.001586  -0.003626   0.004821   0.001346  -0.008592   0.071108
    19  H    0.000193  -0.002614   0.000098   0.000533   0.003271  -0.038944
    20  H    0.004915   0.000234  -0.000133   0.000188  -0.001206   0.028301
    21  N   -0.013136  -0.001302  -0.001753  -0.000204   0.017876  -0.451269
    22  H    0.012959   0.000798   0.000917  -0.000056  -0.003295   0.052129
    23  C    0.006800   0.000508   0.001502  -0.000096  -0.090040   1.316022
    24  C    0.008458   0.003205   0.004862   0.000256  -0.029651   0.564959
    25  C    0.024304  -0.000536  -0.001288   0.000367   0.003818  -0.001518
    26  C    0.001170   0.000575   0.000570  -0.000217  -0.003013  -0.037023
    27  H    0.007940   0.000292   0.000130  -0.001523   0.004952   0.054850
    28  H   -0.000306   0.000051   0.000168  -0.000077  -0.010145   0.206305
    29  C   -0.012002  -0.000548  -0.001659  -0.000320   0.091086  -0.737594
    30  C    0.000791   0.000020  -0.000104   0.000156   0.004967  -0.351561
    31  H   -0.076937  -0.000633  -0.005081   0.001878   0.004997  -0.431612
    32  H    0.002183  -0.000120   0.000052  -0.000017   0.003054   0.004595
    33  H    0.001618   0.000093   0.000106   0.000094   0.000161  -0.011389
    34  H   -0.000876  -0.000032  -0.000035   0.000001   0.000510  -0.017022
    35  H    0.000065   0.000017  -0.000010   0.000016  -0.000220   0.000916
    36  H    0.000429   0.000035   0.000021   0.000001  -0.000724   0.016033
    37  H    0.000223   0.000005  -0.000053  -0.000001   0.000044   0.029959
    38  H   -0.009666  -0.000354  -0.001389   0.000252   0.050688  -0.669115
    39  H    0.007795   0.000367   0.000974   0.000004  -0.024426   0.200708
    40  H    0.000050  -0.000009   0.000001   0.000002   0.000000  -0.008804
    41  H   -0.001047  -0.000031  -0.000028  -0.000009   0.000868  -0.009357
    42  H    0.000107   0.000020   0.000006   0.000000   0.000018  -0.005182
              13         14         15         16         17         18
     1  P   -0.064570   0.031224  -0.040089   0.026503  -0.006617  -0.159949
     2  S   -0.032376   0.004085  -0.021871  -0.000461  -0.818625  -0.110970
     3  O   -0.071782   0.021800  -0.038804  -0.005886  -0.051927   0.030409
     4  C   -0.060234   0.002905   0.001831  -0.004742  -2.445562   0.297858
     5  C   -0.121461  -0.170857   0.161186  -0.066572   0.712969  -0.085879
     6  O   -0.084468  -0.012055   0.029222   0.000704   0.191022   0.054444
     7  C   -0.026721   0.005475   0.000547  -0.002618  -0.029912  -0.001586
     8  H   -0.000908   0.000148  -0.000795   0.000081  -0.017526  -0.003626
     9  H    0.005483   0.000101  -0.000509   0.000268   0.005789   0.004821
    10  H    0.002920   0.000635  -0.002443   0.000240  -0.000499   0.001346
    11  H    0.016068  -0.020920   0.016775  -0.006111   0.066298  -0.008592
    12  H   -0.822748   0.145770  -0.118489  -0.045071  -1.253395   0.071108
    13  C    6.403022   0.388091   0.335978   0.441632   0.143495   0.013638
    14  H    0.388091   0.517319  -0.057008  -0.017375  -0.011029   0.001141
    15  H    0.335978  -0.057008   0.605173  -0.041397   0.010957  -0.009863
    16  H    0.441632  -0.017375  -0.041397   0.507081   0.006083  -0.000360
    17  C    0.143495  -0.011029   0.010957   0.006083  10.758615   0.123775
    18  H    0.013638   0.001141  -0.009863  -0.000360   0.123775   0.713819
    19  H    0.002011  -0.000502   0.001160   0.000190   0.038136  -0.021644
    20  H   -0.003250   0.000424  -0.000190  -0.000156   0.168983  -0.032824
    21  N   -0.038640  -0.007443   0.005827  -0.000941   0.106578  -0.037741
    22  H    0.007614   0.001037  -0.001133  -0.000364   0.373949   0.063368
    23  C   -0.068189   0.007052  -0.007608  -0.000499  -1.946581   0.033664
    24  C    0.186168   0.021268  -0.031873   0.002829  -0.520444  -0.061117
    25  C   -0.138625   0.002431   0.052272  -0.004356  -0.386763  -0.076755
    26  C    0.012930   0.002552  -0.004719  -0.000027  -0.151475   0.066233
    27  H    0.001293  -0.001576   0.015051   0.000065   0.156886  -0.061003
    28  H   -0.011965   0.003139  -0.005626   0.000072  -0.164149   0.006126
    29  C    0.059181  -0.008601   0.004920   0.000688   0.742113  -0.015023
    30  C    0.034198   0.000566   0.001318   0.001111   0.419351  -0.003464
    31  H   -0.026744  -0.016509  -0.089823   0.007982   0.046003   0.038963
    32  H    0.009831  -0.006588   0.021853  -0.000620   0.020819  -0.007480
    33  H    0.007688   0.001851  -0.006217   0.000985  -0.000391   0.002326
    34  H    0.000292  -0.000209   0.000635   0.000035   0.035262  -0.013911
    35  H   -0.001749   0.000145  -0.000537  -0.000067  -0.006851   0.003028
    36  H   -0.000120   0.000305  -0.000478   0.000015  -0.012428   0.004048
    37  H   -0.004022   0.000441   0.000032  -0.000227   0.013606  -0.000097
    38  H    0.024380  -0.025422   0.015925   0.000570   0.236113  -0.009886
    39  H   -0.006553   0.003403  -0.001332  -0.000538  -0.251801   0.008185
    40  H    0.000597  -0.000106   0.000130   0.000008   0.029024   0.000158
    41  H    0.000439  -0.000370   0.000102   0.000112   0.024706  -0.003340
    42  H    0.001092   0.000201  -0.000135   0.000001   0.007639   0.001754
              19         20         21         22         23         24
     1  P   -0.001494   0.009490  -0.024992  -0.044006   0.057972   0.086584
     2  S   -0.053498   0.009892   0.121090  -0.059586   0.126158   0.038071
     3  O   -0.006805   0.000130  -0.020226   0.006023   0.024041   0.060858
[...]
 0.00004110,0.00113621,0.00006385,-0.00059091,-0.00004257,0.00001908,-0
 .00001040,-0.00003720,-0.00000997,0.00001792,0.00000306,0.00000445,0.0
 0000607,-0.00001315,-0.00000143,0.00000993,0.00004511,-0.00005436,-0.0
 0001038,0.00000386,-0.00000048,-0.00000493,0.00001088,0.00000394,-0.00
 000018,0.00001105,-0.00007513,0.00001565,-0.00061894,-0.00071833,0.002
 29091,-0.00003777,-0.00003342,0.00003147,-0.02196851,0.02006389,0.0028
 0170,0.00004484,-0.00020450,0.00006161,0.00003119,0.00000921,0.0001253
 9,-0.00001011,0.00000411,0.00005126,0.00000642,-0.00001240,0.00000630,
 0.00066435,-0.00031863,0.00157891,0.02514828,-0.02191482,-0.04984135,-
 0.00173293,0.00138771,-0.00526197,0.00004576,-0.00001057,0.00002535,-0
 .00001818,-0.00001669,0.00001815,0.00000424,-0.00002482,0.00000221,0.0
 0000212,-0.00002878,0.00001343,0.00002492,0.00000338,-0.00001118,0.000
 01418,0.00002780,0.00002515,0.01295469,-0.01383087,-0.00236947,-0.0248
 8136,0.02228036,0.05327234,0.00003764,-0.00010500,-0.00001865,0.000106
 99,0.00005987,-0.00003652,-0.00000448,0.00004014,-0.00002230,0.0000110
 1,0.00020356,0.00007716,-0.00004582,-0.00007274,-0.00006006,0.00001110
 ,0.00002052,0.00001074,-0.00001138,0.00002349,0.00000722,0.00000258,0.
 00000166,-0.00000133,0.00000118,-0.00000243,0.00000069,-0.00000877,-0.
 00000129,-0.00000074,0.00000440,0.00001720,-0.00002389,0.00016731,-0.0
 0002279,-0.00001829,0.00003339,0.00000251,0.00000881,0.00001020,-0.000
 00080,-0.00000468,-0.00000288,-0.00000170,-0.00000342,0.00000220,-0.00
 000575,-0.00000673,0.00033684,-0.00033285,-0.00019070,-0.00004085,-0.0
 0001579,0.00000625,0.00002784,0.00001812,-0.00002198,-0.00003264,0.000
 06445,0.00009684,-0.00002518,0.00063142,0.00086368,0.00012334,0.000361
 04,0.00023576,-0.00612666,-0.01219470,-0.00515111,0.00003580,-0.000014
 02,0.00010206,-0.00005034,-0.00005781,-0.00007946,-0.00004046,-0.00003
 894,0.00004305,0.00001132,0.00000279,-0.00004488,-0.00033090,0.0009351
 0,-0.00225887,-0.08187492,-0.08028531,-0.04063330,0.00055487,-0.001068
 32,0.00001996,0.00001337,-0.00000731,0.00000500,0.00004912,0.00006765,
 -0.00004331,0.00003387,0.00001630,-0.00002329,0.00000365,0.00001792,-0
 .00001037,0.00001431,0.00001407,-0.00001076,0.00003364,0.00003459,-0.0
 0001094,-0.00765626,-0.01730696,-0.01003190,0.00992817,0.01978385,0.01
 010852,0.08467331,0.00007924,-0.00013271,-0.00007172,-0.00021565,-0.00
 016171,0.00011430,0.00001637,0.00005393,-0.00001819,0.00002004,0.00017
 383,-0.00012646,-0.00001901,0.00001154,-0.00003237,0.00001473,0.000031
 47,0.00004959,-0.00001776,0.00001738,0.00000650,-0.00000018,0.00000501
 ,0.00000144,0.00000022,0.00000324,-0.00000108,-0.00001173,-0.00000567,
 0.00000108,0.00000389,-0.00001412,-0.00000680,0.00000731,-0.00003448,0
 .00000333,-0.00000020,-0.00000085,0.00000142,-0.00000555,0.00000322,0.
 00000300,0.00000118,0.00000223,0.00000335,0.00000016,-0.00000220,0.000
 00267,0.00042237,-0.00028231,0.00035918,-0.00000437,0.00000682,0.00000
 046,0.00001759,0.00000473,-0.00001145,-0.00006131,0.00013871,0.0001706
 7,-0.00007884,0.00029359,-0.00064714,0.00016741,-0.00074873,0.00090822
 ,0.00313085,0.00548897,0.00248676,0.00007980,0.00020740,0.00004712,0.0
 0000720,0.00002943,-0.00002166,-0.00001844,-0.00000569,0.00005916,0.00
 000608,-0.00000831,-0.00007945,0.00054824,0.00088409,0.00128492,-0.080
 62881,-0.23048207,-0.09225629,-0.00029214,0.00118305,-0.00000691,0.000
 00108,-0.00000794,0.00000482,-0.00000787,0.00000484,0.00002610,0.00000
 861,-0.00001753,-0.00000893,0.00000173,-0.00000426,-0.00001273,-0.0000
 2300,-0.00001307,0.00000136,-0.00002617,-0.00001480,0.00001300,-0.0031
 0465,-0.00953767,-0.00446126,-0.00815107,-0.01613466,-0.00733785,0.088
 69671,0.24899048,0.00006881,-0.00011802,-0.00005999,-0.00044009,-0.000
 22356,0.00023275,-0.00000688,0.00004255,-0.00000826,0.00010081,0.00018
 342,0.00019231,-0.00000232,-0.00001826,-0.00001696,-0.00000758,0.00003
 965,0.00003863,-0.00002295,0.00002253,0.00001383,0.00000035,0.00000037
 ,-0.00000071,0.00000247,0.00000288,0.00000028,-0.00001125,-0.00000633,
 0.00000047,0.00000174,0.00000112,-0.00000902,-0.00001186,0.00000493,-0
 .00001576,0.00000750,0.00000312,-0.00000315,-0.00000162,0.00000127,0.0
 0000192,0.00000081,0.00000048,0.00000092,0.00000112,-0.00000061,0.0000
 0104,0.00019276,-0.00005461,-0.00054242,-0.00007475,-0.00002812,0.0000
 1843,0.00000658,0.00000622,-0.00001075,-0.00002031,0.00004289,0.000116
 42,-0.00000420,-0.00027926,0.00251953,-0.00001285,0.00105915,-0.000349
 77,-0.01168878,-0.02616825,-0.01427651,0.00008494,-0.00025436,0.000124
 20,-0.00000736,-0.00003336,-0.00000620,-0.00003634,-0.00002762,0.00008
 404,0.00002173,0.00002830,-0.00002075,-0.00266676,0.00206637,-0.004808
 55,-0.03963824,-0.09120120,-0.09015851,0.00163139,-0.00063223,0.000765
 26,0.00002672,-0.00000539,-0.00001260,0.00002838,0.00012271,0.00001059
 ,0.00004423,0.00003447,-0.00002543,-0.00000405,0.00002769,-0.00001667,
 0.00006478,0.00004367,-0.00000299,0.00009563,0.00007432,0.00000729,0.0
 0635822,0.01718704,0.00899948,-0.00116314,-0.00240403,-0.00223363,0.04
 704180,0.09973580,0.09886190,0.00016081,-0.00011868,-0.00010245,-0.000
 05942,-0.00004928,0.00003897,-0.00004581,0.00005597,-0.00000838,0.0001
 8308,-0.00018130,0.00004526,0.00001440,-0.00000791,0.00000197,-0.00005
 631,0.00004267,0.00005767,-0.00002502,0.00002389,0.00001436,-0.0000007
 5,0.00000177,-0.00000086,0.00000122,-0.00000036,0.00000124,-0.00001177
 ,-0.00000586,0.00000232,-0.00000944,0.00000924,-0.00000754,-0.00000981
 ,-0.00002588,0.00000844,-0.00001242,0.00000113,-0.00000836,0.00000110,
 0.00000350,0.00000168,0.00000162,0.00000008,-0.00000046,-0.00000271,0.
 00000721,0.00000330,0.00016793,0.00205649,-0.00016690,-0.00002130,0.00
 001997,-0.00001076,-0.00009630,-0.00007326,0.00001247,0.00043908,-0.00
 013865,0.00009543,-0.00588016,0.00208078,0.00201657,0.00003535,0.00008
 771,0.00012958,-0.01554130,-0.01680352,0.01148908,-0.00063285,-0.00051
 451,-0.00135571,0.00005688,-0.00001149,0.00024735,0.00015992,0.0002261
 0,0.00003375,0.00001425,0.00003730,0.00031859,0.00139239,-0.00013766,0
 .00014017,0.00068291,-0.00055471,0.00020236,-0.16895329,-0.10454536,0.
 08317830,0.00001013,-0.00000632,-0.00000869,-0.00000612,0.00001383,-0.
 00001796,-0.00000639,0.00011180,0.00005491,0.00005616,-0.00007345,-0.0
 0004424,0.00008153,-0.00005771,0.00006541,-0.00001022,-0.00004774,0.00
 006559,-0.00006693,0.00029128,-0.00051336,0.00031106,0.00021879,-0.000
 03361,-0.00005394,0.00007514,0.00005895,0.18220194,-0.00002373,-0.0000
 2979,-0.00001569,-0.00004676,0.00004245,-0.00001070,0.00000309,0.00000
 531,-0.00000121,-0.00002865,0.00035788,0.00019346,-0.00000865,-0.00000
 536,0.00000964,0.00001566,0.00000771,-0.00000109,-0.00000228,0.0000053
 4,0.00000477,0.00000048,-0.00000024,0.00000023,0.00000078,0.00000042,0
 .00000015,-0.00000172,-0.00000076,0.00000066,0.00000586,-0.00000279,0.
 00000060,-0.00000742,0.00001482,-0.00000888,0.00000389,0.00000057,0.00
 000201,0.00000046,-0.00000020,-0.00000013,-0.00000060,0.00000024,0.000
 00016,-0.00000003,-0.00000135,-0.00000103,-0.00040483,-0.00108163,-0.0
 0014530,-0.00009233,-0.00005338,0.00001971,0.00005680,0.00003926,-0.00
 002491,-0.00022346,0.00011555,-0.00017849,0.00466357,-0.00098004,-0.00
 154846,0.00004555,0.00010887,0.00040800,0.01239048,0.00929830,-0.00863
 906,0.00028577,0.00023492,0.00074864,-0.00002128,0.00003075,-0.0000739
 5,-0.00007868,-0.00002501,0.00000578,-0.00003154,0.00000921,-0.0001382
 2,-0.00055942,0.00117538,-0.00022204,-0.00034766,0.00015893,0.00019512
 ,-0.10646900,-0.13467958,0.07290943,-0.00001116,0.00000649,0.00000086,
 -0.00001507,-0.00002091,0.00001535,-0.00001053,-0.00004711,-0.00001605
 ,-0.00001099,0.00007423,0.00000251,-0.00007515,0.00002052,-0.00002140,
 -0.00009768,-0.00008683,0.00008669,0.00036251,0.00001007,0.00002216,-0
 .00015466,0.00007973,-0.00023043,0.00005963,0.00001067,0.00001789,0.11
 266437,0.14474063,-0.00005267,0.00003730,0.00004387,0.00006445,0.00004
 295,-0.00001212,0.00002199,-0.00001464,-0.00000069,-0.00005020,0.00014
 863,0.00014808,-0.00001097,0.00000087,-0.00000119,0.00001541,-0.000010
 00,-0.00001956,0.00000809,-0.00000970,-0.00000573,0.00000041,-0.000000
 38,0.00000061,-0.00000082,0.00000011,-0.00000030,0.00000458,0.00000250
 ,-0.00000091,0.00000503,-0.00000293,0.00000268,0.00001070,0.00000640,-
 0.00000214,0.00000639,-0.00000139,0.00000436,-0.00000119,-0.00000127,-
 0.00000054,-0.00000074,0.00000017,0.00000007,0.00000113,-0.00000373,-0
 .00000140,-0.00055959,-0.00090895,-0.00030972,-0.00004879,-0.00003456,
 0.00001414,0.00004874,0.00002402,-0.00001256,-0.00009036,-0.00003312,-
 0.00004021,0.00227759,-0.00087847,0.00042952,-0.00004692,0.00007864,0.
 00026616,0.00265561,0.00301567,-0.00426389,-0.00008686,0.00021883,0.00
 057049,-0.00000551,0.00004351,-0.00005434,-0.00010897,0.00004881,-0.00
 033564,0.00001840,0.00001858,-0.00007943,-0.00013825,0.00012055,0.0001
 1897,-0.00039508,0.00009298,-0.00030989,0.08420566,0.07258324,-0.10385
 607,0.00000607,-0.00000723,0.00000441,-0.00000979,-0.00001143,0.000008
 35,-0.00000427,-0.00003682,-0.00002432,-0.00001434,-0.00021817,-0.0000
 3440,0.00013787,-0.00008568,-0.00005707,-0.00002591,0.00013238,-0.0000
 5248,-0.00050294,0.00009300,0.00017250,-0.00002267,-0.00020642,0.00010
 249,-0.00011844,0.00002557,0.00005271,-0.09311122,-0.07885484,0.108878
 81,0.00000225,-0.00000736,-0.00000594,0.00001628,0.00000584,0.00002784
 ,0.00000491,0.00000680,-0.00000123,-0.00009381,0.00010871,0.00009849,0
 .00000137,0.00000638,-0.00000423,-0.00000745,0.00000364,-0.00000112,-0
 .00000092,0.00000139,0.00000035,-0.00000027,0.00000025,0.00000014,-0.0
 0000103,-0.00000099,0.00000102,-0.00000023,0.00000030,0.00000026,-0.00
 000214,0.00000030,0.00000171,0.00001458,-0.00000388,0.00000683,0.00000
 003,0.00000226,-0.00000042,0.00000070,-0.00000130,0.00000062,0.0000008
 4,-0.00000058,-0.00000081,-0.00000082,-0.00000080,-0.00000053,-0.00100
 966,-0.00048361,0.00081646,-0.00002375,-0.00000126,0.00000705,-0.00000
 195,0.00001187,-0.00001418,-0.00018986,-0.00031224,-0.00025012,0.00101
 292,-0.00047485,-0.00068686,-0.00246835,-0.00114411,0.00088716,0.00571
 753,0.02355591,0.01545891,0.00000795,-0.00000836,-0.00007445,0.0000695
 3,0.00010746,0.00000945,0.00000371,-0.00003211,-0.00013089,-0.00000392
 ,-0.00002104,0.00003474,-0.00418176,0.00299662,0.00065210,0.00163318,-
 0.00041605,0.00115350,-0.05465368,-0.03939140,-0.03005260,-0.00002409,
 -0.00000004,0.00000449,-0.00008225,-0.00010494,0.00006224,-0.00004835,
 -0.00005397,0.00001941,0.00000378,-0.00005422,0.00001431,0.00003194,-0
 .00000784,-0.00003008,0.00003028,0.00004845,-0.00000983,0.00003657,-0.
 00006983,-0.00011249,0.00015396,-0.00020369,0.00015342,-0.00005119,-0.
 00049207,-0.00023438,-0.00423354,-0.01601778,-0.01350097,0.06137315,0.
 00000552,-0.00003938,-0.00001089,0.00002341,0.00002400,0.00000249,0.00
 000358,0.00001643,-0.00000319,-0.00005073,0.00040754,0.00047217,-0.000
 01250,-0.00000876,0.00000035,0.00000150,0.00001868,0.00000662,-0.00000
 353,0.00000551,0.00000408,0.00000122,0.00000030,-0.00000008,0.00000092
 ,0.00000049,-0.00000010,-0.00000236,-0.00000077,0.00000004,0.00000299,
 -0.00000132,0.00000074,-0.00000354,0.00000200,-0.00000332,0.00000277,-
 0.00000038,0.00000230,-0.00000048,0.00000084,-0.00000172,-0.00000097,0
 .00000004,0.00000065,0.00000174,-0.00000088,-0.00000018,-0.00154082,-0
 .00035399,-0.00047757,-0.00015624,-0.00008173,0.00002593,0.00006218,0.
 00002029,-0.00002870,0.00010432,0.00003921,-0.00019560,0.00014078,0.00
 015425,0.00036372,-0.00112082,0.00006057,0.00100300,-0.00372435,-0.015
 77778,-0.00912343,0.00013176,0.00005412,0.00031526,-0.00006692,-0.0000
 6945,-0.00010749,-0.00002210,0.00004573,0.00016338,0.00000762,0.000014
 02,-0.00010449,0.00379357,-0.00074466,-0.00041864,-0.00074635,0.000872
 74,-0.00053737,-0.03836466,-0.21360143,-0.12293241,0.00001755,0.000000
 29,0.00000205,0.00006079,0.00011221,-0.00003038,0.00005635,0.00001067,
 -0.00004417,-0.00000155,0.00003075,-0.00002744,-0.00005083,-0.00000253
 ,0.00003560,-0.00005002,-0.00002399,0.00006782,0.00001505,-0.00009140,
 0.00014559,-0.00003082,0.00026292,0.00005556,0.00026231,-0.00002907,0.
 00045951,-0.00278969,-0.01379935,-0.01048877,0.04216526,0.23286698,0.0
 0003326,-0.00007707,-0.00004658,-0.00003668,0.00002943,0.00000868,-0.0
 0000280,0.00002999,-0.00000650,0.00000239,0.00023017,0.00024028,-0.000
 01227,-0.00000812,0.00000275,-0.00000523,0.00002600,0.00002148,-0.0000
 0778,0.00001615,0.00001078,0.00000048,-0.00000045,-0.00000075,0.000001
 17,0.00000130,0.00000084,-0.00000565,-0.00000387,0.00000136,0.00000106
 ,0.00000057,-0.00000011,-0.00000332,0.00000013,-0.00000389,0.00000378,
 0.00000240,-0.00000190,0.00000013,0.00000078,0.00000072,0.00000034,-0.
 00000090,0.00000031,0.00000032,-0.00000061,0.00000030,-0.00028035,-0.0
 0028018,-0.00045255,-0.00010334,-0.00004589,0.00002263,0.00001317,-0.0
 0000112,-0.00001974,-0.00003199,0.00007816,-0.00021702,0.00014319,-0.0
 0028294,0.00013996,0.00066945,0.00021053,0.00040188,-0.00155773,-0.003
 35190,-0.00342112,-0.00015532,0.00010709,0.00006755,0.00001892,-0.0000
 1718,0.00000160,-0.00008837,-0.00023359,-0.00037600,0.00003359,0.00000
 201,-0.00002937,0.00069938,-0.00011997,0.00059950,-0.00013821,0.001143
 25,0.00063884,-0.02898692,-0.12301713,-0.13773702,0.00001194,-0.000016
 04,-0.00000482,0.00002381,0.00003555,-0.00000652,0.00002867,0.00001159
 ,0.00000272,-0.00001598,-0.00015586,0.00002718,0.00018293,-0.00000271,
 -0.00010558,0.00023022,0.00021696,-0.00005227,0.00023056,-0.00005436,0
 .00002560,0.00014012,0.00014566,-0.00001718,0.00011048,-0.00016238,0.0
 0052212,0.00219425,0.01253330,0.00960425,0.03119917,0.13534829,0.14442
 385,-0.00001826,0.00002588,-0.00000693,0.00002359,0.00000490,0.0000189
 4,-0.00001682,-0.00001891,0.00001290,0.00001646,-0.00007082,0.00004309
 ,0.00001063,-0.00000153,0.00002481,0.00001113,-0.00000528,0.00000057,0
 .00000410,-0.00000641,0.00000004,-0.00000120,-0.00000014,0.00000075,-0
 .00000035,0.00000053,0.00000010,0.00000140,0.00000081,-0.00000031,0.00
 000860,-0.00000610,0.00000054,-0.00000224,0.00001148,-0.00001842,-0.00
 000142,0.00000100,-0.00000213,0.00000149,-0.00000111,-0.00000102,-0.00
 000067,0.00000078,0.00000194,-0.00000061,0.00000113,0.00000090,-0.0002
 0427,-0.00060704,-0.00000584,-0.00000630,-0.00000401,0.00000161,-0.000
 00344,0.00000480,-0.00000020,-0.00032628,-0.00031279,0.00017582,0.0024
 2422,-0.00073997,-0.00032816,0.00000448,0.00012271,0.00002215,-0.00941
 214,0.00645647,-0.02493049,-0.00043970,0.00007344,0.00017942,0.0000800
 2,0.00005813,0.00002791,-0.00022702,0.00012306,0.00005582,0.00009653,0
 .00000633,0.00003247,0.00078662,-0.00031451,0.00037053,-0.00437355,0.0
 0394433,0.00215840,-0.08824292,0.03392748,-0.09246946,0.00001743,-0.00
 004127,-0.00000502,-0.00002130,-0.00003386,0.00000768,-0.00000565,-0.0
 0001264,0.00000509,-0.00004596,-0.00038639,0.00044491,0.00029857,-0.00
 009024,-0.00014996,0.00017905,0.00044218,0.00009756,0.00042002,-0.0000
 2025,-0.00000802,-0.00088406,0.00053261,-0.00163148,0.00012925,-0.0001
 4715,0.00021599,0.00976406,-0.00581785,0.01941936,-0.00303642,0.001878
 05,-0.00454082,0.09299293,-0.00000261,-0.00000648,0.00001280,-0.000005
 80,-0.00000829,-0.00001630,0.00001630,0.00000552,-0.00000547,0.0000167
 5,0.00000349,-0.00002713,-0.00000866,0.00000337,-0.00001484,-0.0000008
 4,0.00000044,-0.00000513,0.00000104,0.00000069,-0.00000137,0.00000039,
 0.00000003,0.00000014,0.,-0.00000015,0.00000020,0.00000026,0.00000017,
 -0.00000011,-0.00000461,0.00000365,0.00000035,0.00000353,-0.00000592,0
 .00001115,0.00000431,-0.00000050,0.00000189,-0.00000140,-0.00000029,0.
 00000043,-0.00000039,0.00000042,-0.00000085,0.00000066,-0.00000220,-0.
 00000098,0.00010390,0.00020970,-0.00013451,0.00000927,0.00000388,-0.00
 000951,0.00001038,0.00000281,0.00000214,-0.00003005,0.00009024,0.00016
 269,-0.00124069,0.00064797,-0.00020696,0.00004597,0.00003818,-0.000061
 67,0.00373259,-0.00535752,0.01591812,0.00038145,0.00003467,-0.00001636
 ,-0.00003008,-0.00001395,-0.00000918,0.00010572,0.00006589,0.00011030,
 -0.00005658,-0.00002381,-0.00008880,-0.00069698,0.00025033,0.00002281,
 0.00288269,-0.00162265,-0.00122204,0.03451051,-0.07433033,0.07383316,-
 0.00001360,0.00001933,0.00000089,0.00000298,0.00001222,0.00000233,-0.0
 0000183,-0.00000359,-0.00000781,-0.00013173,0.00027167,0.00018909,-0.0
 0021152,0.00009782,0.00010293,0.00018901,-0.00066997,-0.00075961,0.000
 00082,0.00006688,-0.00033677,0.00079991,0.00012286,0.00090225,0.000199
 61,0.00009324,0.00024689,0.00811427,-0.00573392,0.01507377,-0.00971717
 ,0.00960633,-0.02233703,-0.03897781,0.07612778,0.00001010,0.00001618,0
 .00000805,0.00005030,-0.00001523,0.00000780,-0.00000932,-0.00000591,0.
 00000516,0.00002349,-0.00009367,0.00008490,0.00001125,-0.00000311,0.00
 000133,-0.00000773,-0.00000090,-0.00000095,0.00000091,-0.00000232,-0.0
 0000199,-0.00000026,-0.00000005,0.,-0.00000085,-0.00000048,-0.00000025
 ,0.00000072,0.00000042,-0.00000072,-0.00000008,0.00000076,-0.00000210,
 -0.00000778,-0.00000383,-0.00000073,-0.00000375,-0.00000055,-0.0000019
 0,0.00000040,-0.00000042,0.00000023,0.00000028,0.00000031,-0.00000022,
 -0.00000062,0.00000160,0.00000033,-0.00000278,0.00027872,-0.00025496,-
 0.00000566,-0.00000034,-0.00000137,-0.00001394,-0.00001101,0.00000470,
 0.00022202,-0.00007170,0.00002206,-0.00093283,0.00040923,0.00077529,-0
 .00005055,0.00005517,0.00006590,0.00314940,-0.00216786,0.00570687,-0.0
 0006814,-0.00005346,0.00009691,-0.00005779,-0.00000959,-0.00003037,0.0
 0059139,-0.00093711,-0.00259339,-0.00002185,0.00003517,0.00005848,-0.0
 0059525,0.00034113,0.00010927,0.00070114,-0.00015723,0.00075881,-0.094
 79989,0.07560744,-0.25260673,-0.00001542,0.00003302,0.00000699,0.00000
 398,-0.00000442,-0.00000040,-0.00000133,0.00001301,0.00001205,0.000443
 74,-0.00030471,-0.00136647,0.00045894,-0.00014231,-0.00022794,0.000563
 64,-0.00014695,-0.00102480,-0.00003196,-0.00014532,0.00014323,0.000115
 15,-0.00015029,0.00020972,0.00008790,-0.00004712,0.00001448,-0.0050874
 1,0.00295476,-0.01094788,-0.00549856,0.00606083,-0.01426630,0.10077900
 ,-0.08133187,0.27523691\\0.00000012,0.00000187,0.00000479,-0.00000304,
 0.00000165,0.00000213,-0.00000088,0.00000254,0.00000594,-0.00000129,0.
 00000029,-0.00000058,-0.00000084,0.00000199,0.00000468,0.00000243,0.00
 000059,0.00000373,-0.00000025,0.00000275,0.00000729,0.00000030,0.00000
 247,0.00000667,-0.00000205,0.00000363,0.00000781,0.00000119,0.00000297
 ,0.00000884,-0.00000263,0.00000262,0.00000474,-0.00000082,0.00000119,0
 .00000252,0.00000138,0.00000175,0.00000557,0.00000139,0.00000130,0.000
 00456,0.00000312,0.00000114,0.00000543,0.00000122,0.00000251,0.0000075
 0,-0.00000149,-0.00000057,-0.00000270,0.00000074,-0.00000022,0.0000001
 1,-0.00000211,0.00000015,-0.00000120,-0.00000094,-0.00000134,-0.000004
 29,-0.00000023,-0.00000060,-0.00000230,-0.00000362,-0.00000014,-0.0000
 0318,-0.00000150,-0.00000093,-0.00000361,0.00000251,-0.00000152,-0.000
 00218,0.00000372,-0.00000137,-0.00000060,0.00000346,-0.00000284,-0.000
 00469,0.00000300,-0.00000138,-0.00000120,-0.00000002,-0.00000136,-0.00
 000363,-0.00000373,0.00000016,-0.00000229,-0.00000236,-0.00000167,-0.0
 0000627,0.00000323,-0.00000047,0.00000126,0.00000349,-0.00000162,-0.00
 000150,0.00000589,-0.00000193,-0.00000043,0.00000252,-0.00000298,-0.00
 000587,0.00000546,-0.00000336,-0.00000451,0.00000312,-0.00000312,-0.00
 000569,-0.00000453,0.00000008,-0.00000338,-0.00000296,0.00000070,-0.00
 000047,-0.00000504,0.00000070,-0.00000205,-0.00000289,-0.00000187,-0.0
 0000730,-0.00000407,-0.00000122,-0.00000641,-0.00000102,-0.00000250,-0
 .00000725\\\@
 The archive entry for this job was punched.


 LEARN FROM YESTERDAY,
 LIVE FOR TODAY,
 LOOK TO TOMORROW,
 REST THIS AFTERNOON.

           -- SNOOPY
 Job cpu time:       0 days 19 hours 46 minutes 23.3 seconds.
 Elapsed time:       0 days  0 hours 59 minutes 46.0 seconds.
 File lengths (MBytes):  RWF=   1279 Int=      0 D2E=      0 Chk=     44 Scr=      1
 Normal termination of Gaussian 16 at Wed Mar 18 16:11:37 2020.
